   1   1   0   0
  0.1202209E+02  0.2571373E-09  0.2571373E-09  0.2571373E-09  0.5000000E-15
  1.000000000000000E-004
  CAR 
 Cu FCC                                  
     51.63926645     -4.39771650  301      7.25322737      1.00000000
     -4.398  0.0000E+00  0.0000E+00
     -4.211  0.0000E+00  0.0000E+00
     -4.024  0.0000E+00  0.0000E+00
     -3.837  0.0000E+00  0.0000E+00
     -3.651  0.0000E+00  0.0000E+00
     -3.464  0.0000E+00  0.0000E+00
     -3.277  0.0000E+00  0.0000E+00
     -3.090  0.0000E+00  0.0000E+00
     -2.903  0.0000E+00  0.0000E+00
     -2.717  0.0000E+00  0.0000E+00
     -2.530  0.0000E+00  0.0000E+00
     -2.343  0.0000E+00  0.0000E+00
     -2.156  0.0000E+00  0.0000E+00
     -1.969  0.1125E-11  0.2102E-12
     -1.783  0.1070E-03  0.1999E-04
     -1.596  0.5107E-09  0.2000E-04
     -1.409  0.8890E-03  0.1861E-03
     -1.222  0.6099E-03  0.3000E-03
     -1.035  0.2269E-11  0.3000E-03
     -0.849  0.1282E-02  0.5396E-03
     -0.662  0.1897E-07  0.5400E-03
     -0.475  0.2831E-02  0.1069E-02
     -0.288  0.5949E-03  0.1180E-02
     -0.102  0.3906E-07  0.1180E-02
      0.085  0.6424E-03  0.1300E-02
      0.272  0.5536E-03  0.1403E-02
      0.459  0.4578E-02  0.2259E-02
      0.646  0.8537E-12  0.2260E-02
      0.832  0.2559E-02  0.2738E-02
      1.019  0.5980E-03  0.2852E-02
      1.206  0.2828E-02  0.3380E-02
      1.393  0.4021E-14  0.3380E-02
      1.580  0.1251E-02  0.3614E-02
      1.766  0.6417E-02  0.4812E-02
      1.953  0.1968E-02  0.5180E-02
      2.140  0.5628E-02  0.6231E-02
      2.327  0.2425E-02  0.6686E-02
      2.514  0.5739E-02  0.7758E-02
      2.700  0.7045E-02  0.9074E-02
      2.887  0.1406E-01  0.1170E-01
      3.074  0.1881E-01  0.1521E-01
      3.261  0.9868E-02  0.1706E-01
      3.447  0.3465E-01  0.2353E-01
      3.634  0.1815E-01  0.2692E-01
      3.821  0.2170E-01  0.3098E-01
      4.008  0.2030E-01  0.3477E-01
      4.195  0.3140E-01  0.4064E-01
      4.381  0.4335E-01  0.4874E-01
      4.568  0.4212E-01  0.5660E-01
      4.755  0.3135E-01  0.6246E-01
      4.942  0.3155E-01  0.6836E-01
      5.129  0.3087E-01  0.7412E-01
      5.315  0.4616E-01  0.8275E-01
      5.502  0.2615E-01  0.8763E-01
      5.689  0.4312E-01  0.9568E-01
      5.876  0.4044E-01  0.1032E+00
      6.063  0.1540E-01  0.1061E+00
      6.249  0.2989E-02  0.1067E+00
      6.436  0.3503E-02  0.1073E+00
      6.623  0.6427E-04  0.1073E+00
      6.810  0.2814E-03  0.1074E+00
      6.996  0.3038E-02  0.1080E+00
      7.183  0.9320E-02  0.1097E+00
      7.370  0.3408E-02  0.1103E+00
      7.557  0.5139E-02  0.1113E+00
      7.744  0.2756E-07  0.1113E+00
      7.930  0.2570E-02  0.1118E+00
      8.117  0.2568E-02  0.1123E+00
      8.304  0.3766E-16  0.1123E+00
      8.491  0.2276E-02  0.1127E+00
      8.678  0.1842E-02  0.1130E+00
      8.864  0.6471E-02  0.1142E+00
      9.051  0.1427E-02  0.1145E+00
      9.238  0.5008E-02  0.1154E+00
      9.425  0.5959E-09  0.1154E+00
      9.612  0.2570E-02  0.1159E+00
      9.798  0.4777E-03  0.1160E+00
      9.985  0.5880E-02  0.1171E+00
     10.172  0.6719E-04  0.1171E+00
     10.359  0.5139E-02  0.1181E+00
     10.545  0.0000E+00  0.1181E+00
     10.732  0.5472E-07  0.1181E+00
     10.919  0.1285E-02  0.1183E+00
     11.106  0.2949E-02  0.1189E+00
     11.293  0.1762E-03  0.1189E+00
     11.479  0.4483E-02  0.1197E+00
     11.666  0.5330E-03  0.1198E+00
     11.853  0.2571E-02  0.1203E+00
     12.040  0.2660E-02  0.1208E+00
     12.227  0.6323E-02  0.1220E+00
     12.413  0.2576E-02  0.1225E+00
     12.600  0.5134E-02  0.1234E+00
     12.787  0.2573E-02  0.1239E+00
     12.974  0.5135E-02  0.1249E+00
     13.161  0.1339E-05  0.1249E+00
     13.347  0.8552E-03  0.1250E+00
     13.534  0.7816E-03  0.1252E+00
     13.721  0.4358E-02  0.1260E+00
     13.908  0.4581E-02  0.1269E+00
     14.094  0.5589E-03  0.1270E+00
     14.281  0.7573E-07  0.1270E+00
     14.468  0.4259E-03  0.1270E+00
     14.655  0.3625E-02  0.1277E+00
     14.842  0.2695E-02  0.1282E+00
     15.028  0.3096E-02  0.1288E+00
     15.215  0.5844E-02  0.1299E+00
     15.402  0.2848E-02  0.1304E+00
     15.589  0.1003E-01  0.1323E+00
     15.776  0.1907E-04  0.1323E+00
     15.962  0.1328E-05  0.1323E+00
     16.149  0.1096E-01  0.1343E+00
     16.336  0.1885E-02  0.1347E+00
     16.523  0.1169E-02  0.1349E+00
     16.710  0.2795E-02  0.1354E+00
     16.896  0.3745E-02  0.1361E+00
     17.083  0.2570E-02  0.1366E+00
     17.270  0.4784E-02  0.1375E+00
     17.457  0.3575E-02  0.1382E+00
     17.643  0.8472E-03  0.1383E+00
     17.830  0.2570E-02  0.1388E+00
     18.017  0.7177E-04  0.1388E+00
     18.204  0.1346E-01  0.1413E+00
     18.391  0.5738E-02  0.1424E+00
     18.577  0.1013E-05  0.1424E+00
     18.764  0.3836E-02  0.1431E+00
     18.951  0.2587E-02  0.1436E+00
     19.138  0.2297E-02  0.1440E+00
     19.325  0.7940E-02  0.1455E+00
     19.511  0.7771E-02  0.1470E+00
     19.698  0.1265E-02  0.1472E+00
     19.885  0.2208E-02  0.1476E+00
     20.072  0.3613E-03  0.1477E+00
     20.259  0.4107E-02  0.1485E+00
     20.445  0.1060E-01  0.1504E+00
     20.632  0.2609E-02  0.1509E+00
     20.819  0.4915E-02  0.1519E+00
     21.006  0.8817E-02  0.1535E+00
     21.193  0.5563E-02  0.1545E+00
     21.379  0.7844E-03  0.1547E+00
     21.566  0.1789E-02  0.1550E+00
     21.753  0.3851E-02  0.1557E+00
     21.940  0.0000E+00  0.1557E+00
     22.126  0.1339E-02  0.1560E+00
     22.313  0.6249E-02  0.1572E+00
     22.500  0.1383E-01  0.1597E+00
     22.687  0.2591E-02  0.1602E+00
     22.874  0.6274E-03  0.1603E+00
     23.060  0.3848E-02  0.1611E+00
     23.247  0.5074E-02  0.1620E+00
     23.434  0.4954E-02  0.1629E+00
     23.621  0.2821E-02  0.1635E+00
     23.808  0.0000E+00  0.1635E+00
     23.994  0.3878E-05  0.1635E+00
     24.181  0.5136E-02  0.1644E+00
     24.368  0.2566E-02  0.1649E+00
     24.555  0.6736E-02  0.1662E+00
     24.742  0.6588E-02  0.1674E+00
     24.928  0.3094E-02  0.1680E+00
     25.115  0.2529E-02  0.1684E+00
     25.302  0.1285E-02  0.1687E+00
     25.489  0.7799E-03  0.1688E+00
     25.675  0.4683E-02  0.1697E+00
     25.862  0.8026E-02  0.1712E+00
     26.049  0.2413E-11  0.1712E+00
     26.236  0.3968E-02  0.1719E+00
     26.423  0.3652E-02  0.1726E+00
     26.609  0.2532E-02  0.1731E+00
     26.796  0.7624E-02  0.1745E+00
     26.983  0.5185E-02  0.1755E+00
     27.170  0.7235E-02  0.1768E+00
     27.357  0.2408E-02  0.1773E+00
     27.543  0.3143E-02  0.1779E+00
     27.730  0.7876E-02  0.1794E+00
     27.917  0.5671E-02  0.1804E+00
     28.104  0.2624E-02  0.1809E+00
     28.291  0.2851E-02  0.1814E+00
     28.477  0.5852E-02  0.1825E+00
     28.664  0.4361E-02  0.1833E+00
     28.851  0.4867E-02  0.1843E+00
     29.038  0.7735E-02  0.1857E+00
     29.224  0.4506E-02  0.1865E+00
     29.411  0.5344E-02  0.1875E+00
     29.598  0.6069E-02  0.1887E+00
     29.785  0.5136E-02  0.1896E+00
     29.972  0.9728E-02  0.1915E+00
     30.158  0.5982E-02  0.1926E+00
     30.345  0.9865E-02  0.1944E+00
     30.532  0.5229E-02  0.1954E+00
     30.719  0.5283E-02  0.1964E+00
     30.906  0.9348E-02  0.1981E+00
     31.092  0.1732E-02  0.1984E+00
     31.279  0.3407E-02  0.1991E+00
     31.466  0.1676E-02  0.1994E+00
     31.653  0.2587E-02  0.1999E+00
     31.840  0.1820E-02  0.2002E+00
     32.026  0.2040E-02  0.2006E+00
     32.213  0.3371E-02  0.2012E+00
     32.400  0.3916E-03  0.2013E+00
     32.587  0.1284E-02  0.2015E+00
     32.773  0.4870E-03  0.2016E+00
     32.960  0.6361E-02  0.2028E+00
     33.147  0.3618E-03  0.2029E+00
     33.334  0.2208E-02  0.2033E+00
     33.521  0.6398E-02  0.2045E+00
     33.707  0.2603E-02  0.2050E+00
     33.894  0.1412E-01  0.2076E+00
     34.081  0.6135E-02  0.2088E+00
     34.268  0.9283E-02  0.2105E+00
     34.455  0.6451E-02  0.2117E+00
     34.641  0.7848E-02  0.2132E+00
     34.828  0.5100E-02  0.2141E+00
     35.015  0.3938E-02  0.2149E+00
     35.202  0.1071E-01  0.2169E+00
     35.389  0.3855E-02  0.2176E+00
     35.575  0.2299E-02  0.2180E+00
     35.762  0.2840E-02  0.2185E+00
     35.949  0.2381E-14  0.2185E+00
     36.136  0.2493E-02  0.2190E+00
     36.322  0.1965E-02  0.2194E+00
     36.509  0.4964E-02  0.2203E+00
     36.696  0.5233E-02  0.2213E+00
     36.883  0.5447E-02  0.2223E+00
     37.070  0.5855E-02  0.2234E+00
     37.256  0.3160E-02  0.2240E+00
     37.443  0.2302E-02  0.2244E+00
     37.630  0.4929E-02  0.2253E+00
     37.817  0.3047E-02  0.2259E+00
     38.004  0.1157E-05  0.2259E+00
     38.190  0.2569E-02  0.2264E+00
     38.377  0.1626E-02  0.2267E+00
     38.564  0.1187E-01  0.2289E+00
     38.751  0.7497E-02  0.2303E+00
     38.938  0.8502E-03  0.2305E+00
     39.124  0.4778E-02  0.2314E+00
     39.311  0.3613E-03  0.2314E+00
     39.498  0.3349E-02  0.2320E+00
     39.685  0.4360E-02  0.2329E+00
     39.872  0.8020E-03  0.2330E+00
     40.058  0.1769E-02  0.2333E+00
     40.245  0.5138E-02  0.2343E+00
     40.432  0.0000E+00  0.2343E+00
     40.619  0.4630E-12  0.2343E+00
     40.805  0.5100E-02  0.2353E+00
     40.992  0.3666E-02  0.2359E+00
     41.179  0.1512E-02  0.2362E+00
     41.366  0.5113E-02  0.2372E+00
     41.553  0.2637E-04  0.2372E+00
     41.739  0.7749E-05  0.2372E+00
     41.926  0.6347E-03  0.2373E+00
     42.113  0.0000E+00  0.2373E+00
     42.300  0.0000E+00  0.2373E+00
     42.487  0.0000E+00  0.2373E+00
     42.673  0.8074E-05  0.2373E+00
     42.860  0.2901E-02  0.2378E+00
     43.047  0.2231E-02  0.2383E+00
     43.234  0.0000E+00  0.2383E+00
     43.421  0.0000E+00  0.2383E+00
     43.607  0.0000E+00  0.2383E+00
     43.794  0.0000E+00  0.2383E+00
     43.981  0.0000E+00  0.2383E+00
     44.168  0.0000E+00  0.2383E+00
     44.354  0.0000E+00  0.2383E+00
     44.541  0.1249E-04  0.2383E+00
     44.728  0.3842E-02  0.2390E+00
     44.915  0.1285E-02  0.2392E+00
     45.102  0.0000E+00  0.2392E+00
     45.288  0.0000E+00  0.2392E+00
     45.475  0.0000E+00  0.2392E+00
     45.662  0.0000E+00  0.2392E+00
     45.849  0.0000E+00  0.2392E+00
     46.036  0.3603E-03  0.2393E+00
     46.222  0.2821E-03  0.2393E+00
     46.409  0.0000E+00  0.2393E+00
     46.596  0.0000E+00  0.2393E+00
     46.783  0.3653E-11  0.2393E+00
     46.970  0.2564E-02  0.2398E+00
     47.156  0.0000E+00  0.2398E+00
     47.343  0.0000E+00  0.2398E+00
     47.530  0.0000E+00  0.2398E+00
     47.717  0.0000E+00  0.2398E+00
     47.903  0.0000E+00  0.2398E+00
     48.090  0.0000E+00  0.2398E+00
     48.277  0.0000E+00  0.2398E+00
     48.464  0.4496E-04  0.2398E+00
     48.651  0.5975E-03  0.2399E+00
     48.837  0.0000E+00  0.2399E+00
     49.024  0.2192E-06  0.2399E+00
     49.211  0.3210E-03  0.2400E+00
     49.398  0.0000E+00  0.2400E+00
     49.585  0.0000E+00  0.2400E+00
     49.771  0.0000E+00  0.2400E+00
     49.958  0.0000E+00  0.2400E+00
     50.145  0.0000E+00  0.2400E+00
     50.332  0.0000E+00  0.2400E+00
     50.519  0.0000E+00  0.2400E+00
     50.705  0.0000E+00  0.2400E+00
     50.892  0.0000E+00  0.2400E+00
     51.079  0.0000E+00  0.2400E+00
     51.266  0.0000E+00  0.2400E+00
     51.452  0.0000E+00  0.2400E+00
     51.639  0.0000E+00  0.2400E+00
