    1    1  100    1
  0.1202209E+02  0.2571373E-09  0.2571373E-09  0.2571373E-09  0.5000000E-15
  1.000000000000000E-004
  CAR 
 Cu FCC                                  
     11     47     12
 
  0.0000000E+00  0.0000000E+00  0.0000000E+00  0.1000000E-02
      1         -1.850581   1.000000
      2          4.393882   1.000000
      3          4.393883   1.000000
      4          4.393883   1.000000
      5          5.198845   1.000000
      6          5.198845   1.000000
      7         29.813272   0.000000
      8         32.317938   0.000000
      9         32.317948   0.000000
     10         32.317948   0.000000
     11         34.796565   0.000000
     12         34.796567   0.000000
 
  0.1000000E+00  0.0000000E+00  0.0000000E+00  0.8000000E-02
      1         -1.492837   1.000000
      2          4.322668   1.000000
      3          4.456397   1.000000
      4          4.456398   1.000000
      5          5.176823   1.000000
      6          5.176824   1.000000
      7         27.242052   0.000000
      8         30.512964   0.000000
      9         31.423111   0.000000
     10         31.423119   0.000000
     11         36.182459   0.000000
     12         36.182460   0.000000
 
  0.2000000E+00  0.0000000E+00  0.0000000E+00  0.8000000E-02
      1         -0.464337   1.000000
      2          4.179677   1.000000
      3          4.550502   1.000000
      4          4.550503   1.000000
      5          5.197396   1.000000
      6          5.197396   1.000000
      7         22.125981   0.000000
      8         30.023838   0.000000
      9         30.321892   0.000000
     10         30.321899   0.000000
     11         36.631511   0.000000
     12         36.732011   0.000000
 
  0.3000000E+00  0.0000000E+00  0.0000000E+00  0.8000000E-02
      1          1.009112   1.000000
      2          4.228646   1.000000
      3          4.509044   1.000000
      4          4.509045   1.000000
      5          5.399015   1.000000
      6          5.399015   1.000000
      7         17.324092   0.000000
      8         29.273253   0.000000
      9         29.595767   0.000000
     10         29.595772   0.000000
     11         34.439172   0.000000
     12         34.439179   0.000000
 
  0.4000000E+00  0.0000000E+00  0.0000000E+00  0.8000000E-02
      1          2.132713   1.000000
      2          4.409314   1.000000
      3          4.409314   1.000000
      4          5.169193   1.000000
      5          5.644426   1.000000
      6          5.644427   1.000000
      7         13.223225   0.000000
      8         28.582571   0.000000
      9         29.242672   0.000000
     10         29.242675   0.000000
     11         32.785573   0.000000
     12         32.785582   0.000000
 
  0.5000000E+00  0.0000000E+00  0.0000000E+00  0.4000000E-02
      1          2.389838   1.000000
      2          4.364987   1.000000
      3          4.364987   1.000000
      4          5.748492   1.000000
      5          5.748494   1.000000
      6          6.414120   1.000000
      7         11.031609   0.000000
      8         28.313856   0.000000
      9         29.155274   0.000000
     10         29.155276   0.000000
     11         32.183605   0.000000
     12         32.183615   0.000000
 
  0.1000000E+00  0.1000000E+00  0.0000000E+00  0.6000000E-02
      1         -1.374303   1.000000
      2          4.257872   1.000000
      3          4.504963   1.000000
      4          4.504964   1.000000
      5          5.077542   1.000000
      6          5.248868   1.000000
      7         28.521098   0.000000
      8         29.303394   0.000000
      9         29.303399   0.000000
     10         30.739274   0.000000
     11         36.658167   0.000000
     12         37.103316   0.000000
 
  0.2000000E+00  0.1000000E+00  0.0000000E+00  0.2400000E-01
      1         -0.570018   1.000000
      2          4.102899   1.000000
      3          4.606306   1.000000
      4          4.625749   1.000000
      5          5.017074   1.000000
      6          5.308441   1.000000
      7         24.064097   0.000000
      8         27.749927   0.000000
      9         28.598168   0.000000
     10         31.828380   0.000000
     11         33.723632   0.000000
     12         37.122521   0.000000
 
  0.3000000E+00  0.1000000E+00  0.0000000E+00  0.2400000E-01
      1          0.776589   1.000000
      2          4.003878   1.000000
      3          4.506969   1.000000
      4          4.645616   1.000000
      5          5.300838   1.000000
      6          5.474196   1.000000
      7         19.112461   0.000000
      8         26.819341   0.000000
      9         27.905804   0.000000
     10         30.129903   0.000000
     11         35.072293   0.000000
     12         36.821909   0.000000
 
  0.4000000E+00  0.1000000E+00  0.0000000E+00  0.2400000E-01
      1          2.094578   1.000000
      2          4.269201   1.000000
      3          4.394411   1.000000
      4          4.558915   1.000000
      5          5.682835   1.000000
      6          5.963163   1.000000
      7         14.709357   0.000000
      8         26.573090   0.000000
      9         26.971875   0.000000
     10         28.435163   0.000000
     11         35.288267   0.000000
     12         36.098361   0.000000
 
  0.5000000E+00  0.1000000E+00  0.0000000E+00  0.2400000E-01
      1          2.556391   1.000000
      2          4.245000   1.000000
      3          4.482752   1.000000
      4          4.948143   1.000000
      5          5.755562   1.000000
      6          7.264862   0.291685
      7         11.462025   0.000000
      8         25.648951   0.000000
      9         27.089036   0.000000
     10         28.152719   0.000000
     11         34.642701   0.000000
     12         35.059298   0.000000
 
 -0.4000000E+00  0.1000000E+00  0.0000000E+00  0.2400000E-01
      1          2.490392   1.000000
      2          4.282279   1.000000
      3          4.483496   1.000000
      4          4.856724   1.000000
      5          5.617079   1.000000
      6          6.858352   1.000000
      7         12.317575   0.000000
      8         24.763037   0.000000
      9         28.411840   0.000000
     10         28.691757   0.000000
     11         33.773364   0.000000
     12         35.029375   0.000000
 
 -0.3000000E+00  0.1000000E+00  0.0000000E+00  0.2400000E-01
      1          1.734363   1.000000
      2          4.190388   1.000000
      3          4.410032   1.000000
      4          4.568679   1.000000
      5          5.322596   1.000000
      6          5.925130   1.000000
      7         16.105527   0.000000
      8         24.533802   0.000000
      9         29.904852   0.000000
     10         30.505657   0.000000
     11         33.471024   0.000000
     12         34.839237   0.000000
 
 -0.2000000E+00  0.1000000E+00  0.0000000E+00  0.2400000E-01
      1          0.288743   1.000000
      2          4.055942   1.000000
      3          4.539138   1.000000
      4          4.659262   1.000000
      5          5.045493   1.000000
      6          5.496498   1.000000
      7         20.722671   0.000000
      8         24.942219   0.000000
      9         31.601479   0.000000
     10         33.169903   0.000000
     11         33.781847   0.000000
     12         34.127522   0.000000
 
 -0.1000000E+00  0.1000000E+00  0.0000000E+00  0.1200000E-01
      1         -0.910239   1.000000
      2          4.200130   1.000000
      3          4.544608   1.000000
      4          4.553511   1.000000
      5          5.057757   1.000000
      6          5.269276   1.000000
      7         25.482916   0.000000
      8         26.263027   0.000000
      9         31.978230   0.000000
     10         33.647452   0.000000
     11         34.623495   0.000000
     12         35.296241   0.000000
 
  0.2000000E+00  0.2000000E+00  0.0000000E+00  0.6000000E-02
      1         -0.020028   1.000000
      2          3.908628   1.000000
      3          4.814581   1.000000
      4          4.820664   1.000000
      5          4.820664   1.000000
      6          5.380911   1.000000
      7         25.797352   0.000000
      8         25.797356   0.000000
      9         26.812592   0.000000
     10         27.884552   0.000000
     11         30.778893   0.000000
     12         41.787238   0.000000
 
  0.3000000E+00  0.2000000E+00  0.0000000E+00  0.2400000E-01
      1          1.073612   1.000000
      2          3.727164   1.000000
      3          4.571339   1.000000
      4          4.944756   1.000000
      5          5.283019   1.000000
      6          5.516108   1.000000
      7         21.390102   0.000000
      8         24.538075   0.000000
      9         25.744779   0.000000
     10         27.410933   0.000000
     11         31.140898   0.000000
     12         41.277608   0.000000
 
  0.4000000E+00  0.2000000E+00  0.0000000E+00  0.2400000E-01
      1          2.308503   1.000000
      2          3.693592   1.000000
      3          4.359027   1.000000
      4          4.899030   1.000000
      5          5.712921   1.000000
      6          6.233050   1.000000
      7         16.806600   0.000000
      8         23.485013   0.000000
      9         24.059883   0.000000
     10         27.122555   0.000000
     11         34.683739   0.000000
     12         40.138934   0.000000
 
  0.5000000E+00  0.2000000E+00  0.0000000E+00  0.2400000E-01
      1          2.929293   1.000000
      2          3.839849   1.000000
      3          4.375873   1.000000
      4          4.806089   1.000000
      5          5.774769   1.000000
      6          8.047275   0.000000
      7         12.890880   0.000000
      8         21.630991   0.000000
      9         24.438533   0.000000
     10         27.168279   0.000000
     11         38.397141   0.000000
     12         38.497907   0.000000
 
 -0.4000000E+00  0.2000000E+00  0.0000000E+00  0.2400000E-01
      1          3.030491   1.000000
      2          3.938035   1.000000
      3          4.404297   1.000000
      4          4.754214   1.000000
      5          5.618288   1.000000
      6          8.811969   0.000000
      7         11.914110   0.000000
      8         20.395827   0.000000
      9         25.681528   0.000000
     10         27.694388   0.000000
     11         37.416587   0.000000
     12         38.074025   0.000000
 
 -0.3000000E+00  0.2000000E+00  0.0000000E+00  0.2400000E-01
      1          2.706108   1.000000
      2          4.030657   1.000000
      3          4.138844   1.000000
      4          4.780540   1.000000
      5          5.299121   1.000000
      6          7.033190   1.000000
      7         15.441552   0.000000
      8         19.862114   0.000000
      9         27.702648   0.000000
     10         28.804888   0.000000
     11         36.900258   0.000000
     12         36.928036   0.000000
 
 -0.2000000E+00  0.2000000E+00  0.0000000E+00  0.1200000E-01
      1          1.538583   1.000000
      2          3.913265   1.000000
      3          4.380305   1.000000
      4          4.870371   1.000000
      5          4.956037   1.000000
      6          6.044937   1.000000
      7         19.557245   0.000000
      8         20.339822   0.000000
      9         30.351049   0.000000
     10         30.496957   0.000000
     11         35.039478   0.000000
     12         36.920444   0.000000
 
  0.3000000E+00  0.3000000E+00  0.0000000E+00  0.6000000E-02
      1          1.754139   1.000000
      2          3.490224   1.000000
      3          4.935645   1.000000
      4          5.271523   1.000000
      5          5.271524   1.000000
      6          5.546234   1.000000
      7         22.725767   0.000000
      8         22.928630   0.000000
      9         22.928634   0.000000
     10         25.626331   0.000000
     11         28.296530   0.000000
     12         46.032320   0.000000
 
  0.4000000E+00  0.3000000E+00  0.0000000E+00  0.2400000E-01
      1          2.472374   1.000000
      2          3.357575   1.000000
      3          4.910899   1.000000
      4          5.330561   1.000000
      5          5.718206   1.000000
      6          6.325449   1.000000
      7         19.358522   0.000000
      8         20.156268   0.000000
      9         22.134559   0.000000
     10         26.181166   0.000000
     11         29.774349   0.000000
     12         44.596124   0.000000
 
  0.5000000E+00  0.3000000E+00  0.0000000E+00  0.2400000E-01
      1          2.964261   1.000000
      2          3.388627   1.000000
      3          4.681092   1.000000
      4          5.239757   1.000000
      5          5.801582   1.000000
      6          8.465246   0.000000
      7         15.274895   0.000000
      8         18.093987   0.000000
      9         22.266906   0.000000
     10         26.382322   0.000000
     11         33.745964   0.000000
     12         42.731316   0.000000
 
 -0.4000000E+00  0.3000000E+00  0.0000000E+00  0.2400000E-01
      1          3.290971   1.000000
      2          3.527628   1.000000
      3          4.399190   1.000000
      4          5.130346   1.000000
      5          5.662208   1.000000
      6         11.061891   0.000000
      7         12.077663   0.000000
      8         16.707279   0.000000
      9         23.330031   0.000000
     10         26.782587   0.000000
     11         38.571676   0.000000
     12         41.316678   0.000000
 
 -0.3000000E+00  0.3000000E+00  0.0000000E+00  0.1200000E-01
      1          3.363428   1.000000
      2          3.779724   1.000000
      3          4.062908   1.000000
      4          5.000697   1.000000
      5          5.419019   1.000000
      6          8.883684   0.000000
      7         14.628547   0.000000
      8         16.494370   0.000000
      9         25.203468   0.000000
     10         27.587392   0.000000
     11         39.864785   0.000000
     12         39.962029   0.000000
 
  0.4000000E+00  0.4000000E+00  0.0000000E+00  0.6000000E-02
      1          2.547253   1.000000
      2          3.162015   1.000000
      3          5.681803   1.000000
      4          5.701133   1.000000
      5          5.701133   1.000000
      6          6.815356   1.000000
      7         17.397309   0.000000
      8         20.998872   0.000000
      9         20.998876   0.000000
     10         24.965324   0.000000
     11         27.523987   0.000000
     12         48.495147   0.000000
 
  0.5000000E+00  0.4000000E+00  0.0000000E+00  0.2400000E-01
      1          2.703779   1.000000
      2          3.133661   1.000000
      3          5.471631   1.000000
      4          5.612985   1.000000
      5          5.838547   1.000000
      6          8.731138   0.000000
      7         15.435665   0.000000
      8         18.241388   0.000000
      9         20.820512   0.000000
     10         25.703117   0.000000
     11         29.198466   0.000000
     12         46.908743   0.000000
 
 -0.4000000E+00  0.4000000E+00  0.0000000E+00  0.1200000E-01
      1          2.986197   1.000000
      2          3.278273   1.000000
      3          4.932806   1.000000
      4          5.451874   1.000000
      5          5.762090   1.000000
      6         10.815623   0.000000
      7         14.497701   0.000000
      8         14.964410   0.000000
      9         21.639960   0.000000
     10         26.175097   0.000000
     11         33.443890   0.000000
     12         44.625718   0.000000
 
  0.5000000E+00  0.5000000E+00  0.0000000E+00  0.3000000E-02
      1          2.594628   1.000000
      2          3.038984   1.000000
      3          5.734021   1.000000
      4          5.885104   1.000000
      5          5.885105   1.000000
      6          8.875809   0.000000
      7         14.355448   0.000000
      8         20.306674   0.000000
      9         20.306679   0.000000
     10         24.755428   0.000000
     11         27.327767   0.000000
     12         49.092131   0.000000
 
  0.3000000E+00  0.2000000E+00  0.1000000E+00  0.2400000E-01
      1          0.400364   1.000000
      2          3.928708   1.000000
      3          4.548753   1.000000
      4          4.831094   1.000000
      5          4.997697   1.000000
      6          5.514241   1.000000
      7         22.590747   0.000000
      8         23.202703   0.000000
      9         29.230035   0.000000
     10         30.669206   0.000000
     11         32.884474   0.000000
     12         37.516907   0.000000
 
  0.4000000E+00  0.2000000E+00  0.1000000E+00  0.4800000E-01
      1          1.756122   1.000000
      2          3.852699   1.000000
      3          4.336512   1.000000
      4          4.837474   1.000000
      5          5.278452   1.000000
      6          6.020480   1.000000
      7         18.066875   0.000000
      8         22.323603   0.000000
      9         26.740557   0.000000
     10         30.778803   0.000000
     11         34.533639   0.000000
     12         36.683467   0.000000
 
  0.5000000E+00  0.2000000E+00  0.1000000E+00  0.4800000E-01
      1          2.717741   1.000000
      2          4.039874   1.000000
      3          4.264310   1.000000
      4          4.738000   1.000000
      5          5.601167   1.000000
      6          7.162435   0.999991
      7         13.881537   0.000000
      8         22.375801   0.000000
      9         24.675301   0.000000
     10         30.253405   0.000000
     11         34.340506   0.000000
     12         39.093081   0.000000
 
 -0.4000000E+00  0.2000000E+00  0.1000000E+00  0.2400000E-01
      1          2.908055   1.000000
      2          4.004097   1.000000
      3          4.531224   1.000000
      4          4.679037   1.000000
      5          5.706407   1.000000
      6          8.672383   0.000000
      7         11.327648   0.000000
      8         22.954149   0.000000
      9         23.407512   0.000000
     10         30.028084   0.000000
     11         34.085314   0.000000
     12         39.406006   0.000000
 
  0.4000000E+00  0.3000000E+00  0.1000000E+00  0.2400000E-01
      1          2.085045   1.000000
      2          3.569413   1.000000
      3          4.447112   1.000000
      4          5.270293   1.000000
      5          5.328874   1.000000
      6          6.047212   1.000000
      7         20.253444   0.000000
      8         20.822573   0.000000
      9         23.195812   0.000000
     10         28.950415   0.000000
     11         31.083448   0.000000
     12         40.129112   0.000000
 
  0.5000000E+00  0.3000000E+00  0.1000000E+00  0.4800000E-01
      1          2.926293   1.000000
      2          3.569172   1.000000
      3          4.272260   1.000000
      4          5.169712   1.000000
      5          5.636878   1.000000
      6          7.459892   0.000000
      7         16.141391   0.000000
      8         20.394198   0.000000
      9         20.940630   0.000000
     10         29.512209   0.000000
     11         34.131725   0.000000
     12         38.525405   0.000000
 
 -0.4000000E+00  0.3000000E+00  0.1000000E+00  0.4800000E-01
      1          3.289582   1.000000
      2          3.634042   1.000000
      3          4.236114   1.000000
      4          5.028111   1.000000
      5          5.716985   1.000000
      6          9.826381   0.000000
      7         12.478097   0.000000
      8         19.192552   0.000000
      9         21.054277   0.000000
     10         29.859541   0.000000
     11         36.361190   0.000000
     12         39.519760   0.000000
 
 -0.3000000E+00  0.3000000E+00  0.1000000E+00  0.4800000E-01
      1          3.354303   1.000000
      2          3.735262   1.000000
      3          4.070240   1.000000
      4          4.996740   1.000000
      5          5.570597   1.000000
      6          9.092526   0.000000
      7         13.555917   0.000000
      8         18.180724   0.000000
      9         22.372475   0.000000
     10         30.723481   0.000000
     11         35.578136   0.000000
     12         40.753944   0.000000
 
 -0.2000000E+00  0.3000000E+00  0.1000000E+00  0.2400000E-01
      1          2.850110   1.000000
      2          3.788895   1.000000
      3          4.051127   1.000000
      4          5.051933   1.000000
      5          5.291994   1.000000
      6          7.128914   1.000000
      7         17.160628   0.000000
      8         18.260529   0.000000
      9         24.306849   0.000000
     10         32.119670   0.000000
     11         34.012233   0.000000
     12         37.748222   0.000000
 
  0.5000000E+00  0.4000000E+00  0.1000000E+00  0.2400000E-01
      1          2.789420   1.000000
      2          3.281577   1.000000
      3          4.916464   1.000000
      4          5.569327   1.000000
      5          5.699284   1.000000
      6          7.833770   0.000000
      7         17.728683   0.000000
      8         18.648656   0.000000
      9         19.293509   0.000000
     10         27.927774   0.000000
     11         30.201007   0.000000
     12         42.883843   0.000000
 
 -0.4000000E+00  0.4000000E+00  0.1000000E+00  0.4800000E-01
      1          3.075809   1.000000
      2          3.379322   1.000000
      3          4.637805   1.000000
      4          5.370254   1.000000
      5          5.806668   1.000000
      6         10.255961   0.000000
      7         15.055303   0.000000
      8         16.036038   0.000000
      9         19.425898   0.000000
     10         28.910361   0.000000
     11         33.732027   0.000000
     12         40.980764   0.000000
 
 -0.3000000E+00  0.4000000E+00  0.1000000E+00  0.2400000E-01
      1          3.391710   1.000000
      2          3.539500   1.000000
      3          4.243599   1.000000
      4          5.180874   1.000000
      5          5.702070   1.000000
      6         11.729542   0.000000
      7         12.849753   0.000000
      8         15.532272   0.000000
      9         20.583248   0.000000
     10         29.684371   0.000000
     11         38.565973   0.000000
     12         38.740950   0.000000
 
 -0.4000000E+00  0.5000000E+00  0.1000000E+00  0.1200000E-01
      1          2.804328   1.000000
      2          3.172886   1.000000
      3          5.240384   1.000000
      4          5.575848   1.000000
      5          5.885366   1.000000
      6          9.950650   0.000000
      7         14.540137   0.000000
      8         18.061667   0.000000
      9         18.724903   0.000000
     10         27.596408   0.000000
     11         29.948295   0.000000
     12         44.836844   0.000000
 
 -0.4000000E+00  0.4000000E+00  0.2000000E+00  0.2400000E-01
      1          3.310711   1.000000
      2          3.645566   1.000000
      3          4.063075   1.000000
      4          5.239265   1.000000
      5          5.695954   1.000000
      6          9.531669   0.000000
      7         15.537127   0.000000
      8         17.003313   0.000000
      9         18.814236   0.000000
     10         32.897295   0.000000
     11         34.048463   0.000000
     12         37.611097   0.000000
 
 -0.3000000E+00  0.4000000E+00  0.2000000E+00  0.2400000E-01
      1          3.403872   1.000000
      2          3.752629   1.000000
      3          3.975063   1.000000
      4          5.145373   1.000000
      5          5.796924   1.000000
      6         12.119028   0.000000
      7         12.707792   0.000000
      8         17.246989   0.000000
      9         17.447355   0.000000
     10         33.451276   0.000000
     11         35.110260   0.000000
     12         38.700573   0.000000
 
 -0.3000000E+00  0.5000000E+00  0.2000000E+00  0.1200000E-01
      1          3.227342   1.000000
      2          3.585727   1.000000
      3          4.293633   1.000000
      4          5.235287   1.000000
      5          5.885779   1.000000
      6         12.170953   0.000000
      7         14.942463   0.000000
      8         15.179506   0.000000
      9         16.610120   0.000000
     10         32.521333   0.000000
     11         34.878800   0.000000
     12         38.347553   0.000000
