 vasp.6.4.2 20Jul23 (build Oct 16 2024 22:17:43) complex                        
  
 executed on             LinuxIFC date 2025.02.10  22:45:57
 running    4 mpi-ranks, on    1 nodes
 distrk:  each k-point on    4 cores,    1 groups
 distr:  one band on NCORE=   1 cores,    4 groups


--------------------------------------------------------------------------------------------------------


 INCAR:
   SYSTEM = Cu FCC
   PREC = Accurate
   EDIFF = 1E-10
   EDIFFG = -1E-5
   ISMEAR = 0
   SIGMA = 0.03
   GGA = PE
   ENCUT = 520
   NSW = 100
   IBRION = 2
   ISIF = 3
   LWAVE = .FALSE.
   LCHARG = .FALSE.

 POTCAR:    PAW_PBE Cu 22Jun2005                  
 POTCAR:    PAW_PBE Cu 22Jun2005                  
   SHA256 =  0e71e558f37a4e8407882b4609ceaae59938afaad9ced71dfe8490308a0ab630 Cu/POTCAR             
   COPYR  = (c) Copyright 22Jun2005 Georg Kresse                                                    
   COPYR  = This file is part of the software VASP. Any use, copying, and all other rights are regul
   COPYR  = If you do not have a valid VASP license, you may not use, copy or distribute this file. 
   VRHFIN =Cu: d10 p1                                                                               
   LEXCH  = PE                                                                                      
   EATOM  =  1390.9808 eV,  102.2342 Ry                                                             
                                                                                                    
   TITEL  = PAW_PBE Cu 22Jun2005                                                                    
   LULTRA =        F    use ultrasoft PP ?                                                          
   IUNSCR =        1    unscreen: 0-lin 1-nonlin 2-no                                               
   RPACOR =    2.000    partial core radius                                                         
   POMASS =   63.546; ZVAL   =   11.000    mass and valenz                                          
   RCORE  =    2.300    outmost cutoff radius                                                       
   RWIGS  =    2.200; RWIGS  =    1.164    wigner-seitz radius (au A)                               
   ENMAX  =  295.446; ENMIN  =  221.585 eV                                                          
   ICORE  =        3    local potential                                                             
   LCOR   =        T    correct aug charges                                                         
   LPAW   =        T    paw PP                                                                      
   EAUG   =  586.980                                                                                
   DEXC   =    0.000                                                                                
   RMAX   =    2.344    core radius for proj-oper                                                   
   RAUG   =    1.300    factor for augmentation sphere                                              
   RDEP   =    2.302    radius for radial grids                                                     
   RDEPT  =    1.771    core radius for aug-charge                                                  
                                                                                                    
   Atomic configuration                                                                             
    9 entries                                                                                       
     n  l   j            E        occ.                                                              
     1  0  0.50     -8850.2468   2.0000                                                             
     2  0  0.50     -1062.3498   2.0000                                                             
     2  1  1.50      -916.8226   6.0000                                                             
     3  0  0.50      -114.6929   2.0000                                                             
     3  1  1.50       -72.1325   6.0000                                                             
     3  2  2.50        -5.0394  10.0000                                                             
     4  0  0.50        -4.6097   1.0000                                                             
     4  1  0.50        -4.0817   0.0000                                                             
     4  3  2.50        -1.3606   0.0000                                                             
   Description                                                                                      
     l       E           TYP  RCUT    TYP  RCUT                                                     
     2     -5.0393973     23  2.200                                                                 
     2     10.8846608     23  2.200                                                                 
     0     -4.6097109     23  2.200                                                                 
     0      8.2520465     23  2.200                                                                 
     1     -2.7211652     23  2.200                                                                 
     1     21.7055443     23  2.200                                                                 
     3      2.7211652     23  2.300                                                                 
  local pseudopotential read in
  partial core-charges read in
  partial kinetic energy density read in
  atomic valenz-charges read in
  non local Contribution for L=           2  read in
    real space projection operators read in
  non local Contribution for L=           2  read in
    real space projection operators read in
  non local Contribution for L=           0  read in
    real space projection operators read in
  non local Contribution for L=           0  read in
    real space projection operators read in
  non local Contribution for L=           1  read in
    real space projection operators read in
  non local Contribution for L=           1  read in
    real space projection operators read in
    PAW grid and wavefunctions read in
 
   number of l-projection  operators is LMAX  =           6
   number of lm-projection operators is LMMAX =          18
 
  PAW_PBE Cu 22Jun2005                  :
 energy of atom  1       EATOM=-1390.9808
 kinetic energy error for atom=    0.0037 (will be added to EATOM!!)
 
 
 POSCAR: Copper  [FCC,FCC,cF4] (STD_PRIM doi:10.1
  positions in direct lattice
  velocities in cartesian coordinates
 exchange correlation table for  LEXCH =        8
   RHO(1)=    0.500       N(1)  =     2000
   RHO(2)=  100.500       N(2)  =     4000

 VTST: version 4.1, (05/19/21)

 CHAIN: initializing optimizer
 
 OPT: Using VASP Conjugate-Gradient optimizer
 CHAIN: Read ICHAIN            0
 
 POSCAR: Copper  [FCC,FCC,cF4] (STD_PRIM doi:10.1
  positions in direct lattice
  velocities in cartesian coordinates
 


--------------------------------------------------------------------------------------------------------


 ion  position               nearest neighbor table
   1  0.000  0.000  0.000-
 
  LATTYP: Found a face centered cubic cell.
 ALAT       =     3.6364701533
  
  Lattice vectors:
  
 A1 = (   0.0000000000,   1.8182350767,   1.8182350767)
 A2 = (   1.8182350767,   0.0000000000,   1.8182350767)
 A3 = (   1.8182350767,   1.8182350767,   0.0000000000)


Analysis of symmetry for initial positions (statically):
=====================================================================
 Subroutine PRICEL returns:
 Original cell was already a primitive cell.
 

 Routine SETGRP: Setting up the symmetry group for a 
 face centered cubic supercell.


 Subroutine GETGRP returns: Found 48 space group operations
 (whereof 48 operations were pure point group operations)
 out of a pool of 48 trial point group operations.


The static configuration has the point symmetry O_h .


Analysis of symmetry for dynamics (positions and initial velocities):
=====================================================================
 Subroutine PRICEL returns:
 Original cell was already a primitive cell.
 

 Routine SETGRP: Setting up the symmetry group for a 
 face centered cubic supercell.


 Subroutine GETGRP returns: Found 48 space group operations
 (whereof 48 operations were pure point group operations)
 out of a pool of 48 trial point group operations.


The dynamic configuration has the point symmetry O_h .


 Subroutine INISYM returns: Found 48 space group operations
 (whereof 48 operations are pure point group operations),
 and found     1 'primitive' translations


----------------------------------------------------------------------------------------

                                     Primitive cell                                     

  volume of cell :      12.0221

  direct lattice vectors                    reciprocal lattice vectors
     0.000000000  1.818235077  1.818235077    -0.274991945  0.274991945  0.274991945
     1.818235077  0.000000000  1.818235077     0.274991945 -0.274991945  0.274991945
     1.818235077  1.818235077  0.000000000     0.274991945  0.274991945 -0.274991945

  length of vectors
     2.571372705  2.571372705  2.571372705     0.476300020  0.476300020  0.476300020

  position of ions in fractional coordinates (direct lattice)
     0.000000000  0.000000000  0.000000000

  ion indices of the primitive-cell ions
   primitive index   ion index
                 1           1

----------------------------------------------------------------------------------------

 
 
 KPOINTS: KPOINTS                                 

Automatic generation of k-mesh.
 Grid dimensions read from file:
 generate k-points for:   10   10   10

 Generating k-lattice:

  Cartesian coordinates                     Fractional coordinates (reciprocal lattice)
    -0.027499194  0.027499194  0.027499194     0.100000000  0.000000000  0.000000000
     0.027499194 -0.027499194  0.027499194     0.000000000  0.100000000  0.000000000
     0.027499194  0.027499194 -0.027499194     0.000000000  0.000000000  0.100000000

  Length of vectors
     0.047630002  0.047630002  0.047630002

  Shift w.r.t. Gamma in fractional coordinates (k-lattice)
     0.000000000  0.000000000  0.000000000

 
 Subroutine IBZKPT returns following result:
 ===========================================
 
 Found     47 irreducible k-points:
 
 Following reciprocal coordinates:
            Coordinates               Weight
  0.000000  0.000000  0.000000      1.000000
  0.100000  0.000000  0.000000      8.000000
  0.200000  0.000000  0.000000      8.000000
  0.300000  0.000000  0.000000      8.000000
  0.400000  0.000000  0.000000      8.000000
  0.500000  0.000000  0.000000      4.000000
  0.100000  0.100000  0.000000      6.000000
  0.200000  0.100000  0.000000     24.000000
  0.300000  0.100000  0.000000     24.000000
  0.400000  0.100000  0.000000     24.000000
  0.500000  0.100000  0.000000     24.000000
 -0.400000  0.100000  0.000000     24.000000
 -0.300000  0.100000  0.000000     24.000000
 -0.200000  0.100000  0.000000     24.000000
 -0.100000  0.100000  0.000000     12.000000
  0.200000  0.200000  0.000000      6.000000
  0.300000  0.200000  0.000000     24.000000
  0.400000  0.200000  0.000000     24.000000
  0.500000  0.200000  0.000000     24.000000
 -0.400000  0.200000  0.000000     24.000000
 -0.300000  0.200000  0.000000     24.000000
 -0.200000  0.200000  0.000000     12.000000
  0.300000  0.300000  0.000000      6.000000
  0.400000  0.300000  0.000000     24.000000
  0.500000  0.300000  0.000000     24.000000
 -0.400000  0.300000  0.000000     24.000000
 -0.300000  0.300000  0.000000     12.000000
  0.400000  0.400000  0.000000      6.000000
  0.500000  0.400000  0.000000     24.000000
 -0.400000  0.400000  0.000000     12.000000
  0.500000  0.500000  0.000000      3.000000
  0.300000  0.200000  0.100000     24.000000
  0.400000  0.200000  0.100000     48.000000
  0.500000  0.200000  0.100000     48.000000
 -0.400000  0.200000  0.100000     24.000000
  0.400000  0.300000  0.100000     24.000000
  0.500000  0.300000  0.100000     48.000000
 -0.400000  0.300000  0.100000     48.000000
 -0.300000  0.300000  0.100000     48.000000
 -0.200000  0.300000  0.100000     24.000000
  0.500000  0.400000  0.100000     24.000000
 -0.400000  0.400000  0.100000     48.000000
 -0.300000  0.400000  0.100000     24.000000
 -0.400000  0.500000  0.100000     12.000000
 -0.400000  0.400000  0.200000     24.000000
 -0.300000  0.400000  0.200000     24.000000
 -0.300000  0.500000  0.200000     12.000000
 
 Following cartesian coordinates:
            Coordinates               Weight
  0.000000  0.000000  0.000000      1.000000
 -0.027499  0.027499  0.027499      8.000000
 -0.054998  0.054998  0.054998      8.000000
 -0.082498  0.082498  0.082498      8.000000
 -0.109997  0.109997  0.109997      8.000000
 -0.137496  0.137496  0.137496      4.000000
  0.000000  0.000000  0.054998      6.000000
 -0.027499  0.027499  0.082498     24.000000
 -0.054998  0.054998  0.109997     24.000000
 -0.082498  0.082498  0.137496     24.000000
 -0.109997  0.109997  0.164995     24.000000
  0.137496 -0.137496 -0.082498     24.000000
  0.109997 -0.109997 -0.054998     24.000000
  0.082498 -0.082498 -0.027499     24.000000
  0.054998 -0.054998  0.000000     12.000000
  0.000000  0.000000  0.109997      6.000000
 -0.027499  0.027499  0.137496     24.000000
 -0.054998  0.054998  0.164995     24.000000
 -0.082498  0.082498  0.192494     24.000000
  0.164995 -0.164995 -0.054998     24.000000
  0.137496 -0.137496 -0.027499     24.000000
  0.109997 -0.109997  0.000000     12.000000
  0.000000  0.000000  0.164995      6.000000
 -0.027499  0.027499  0.192494     24.000000
 -0.054998  0.054998  0.219994     24.000000
  0.192494 -0.192494 -0.027499     24.000000
  0.164995 -0.164995  0.000000     12.000000
  0.000000  0.000000  0.219994      6.000000
 -0.027499  0.027499  0.247493     24.000000
  0.219994 -0.219994  0.000000     12.000000
  0.000000  0.000000  0.274992      3.000000
  0.000000  0.054998  0.109997     24.000000
 -0.027499  0.082498  0.137496     48.000000
 -0.054998  0.109997  0.164995     48.000000
  0.192494 -0.137496 -0.082498     24.000000
  0.000000  0.054998  0.164995     24.000000
 -0.027499  0.082498  0.192494     48.000000
  0.219994 -0.164995 -0.054998     48.000000
  0.192494 -0.137496 -0.027499     48.000000
  0.164995 -0.109997 -0.000000     24.000000
  0.000000  0.054998  0.219994     24.000000
  0.247493 -0.192494 -0.027499     48.000000
  0.219994 -0.164995  0.000000     24.000000
  0.274992 -0.219994 -0.000000     12.000000
  0.274992 -0.164995 -0.054998     24.000000
  0.247493 -0.137496 -0.027499     24.000000
  0.274992 -0.164995 -0.000000     12.000000
 


--------------------------------------------------------------------------------------------------------




 Dimension of arrays:
   k-points           NKPTS =     47   k-points in BZ     NKDIM =     47   number of bands    NBANDS=     12
   number of dos      NEDOS =    301   number of ions     NIONS =      1
   non local maximal  LDIM  =      6   non local SUM 2l+1 LMDIM =     18
   total plane-waves  NPLWV =   8000
   max r-space proj   IRMAX =      1   max aug-charges    IRDMAX=  19472
   dimension x,y,z NGX =    20 NGY =   20 NGZ =   20
   dimension x,y,z NGXF=    40 NGYF=   40 NGZF=   40
   support grid    NGXF=    40 NGYF=   40 NGZF=   40
   ions per type =               1
   NGX,Y,Z   is equivalent  to a cutoff of  12.93, 12.93, 12.93 a.u.
   NGXF,Y,Z  is equivalent  to a cutoff of  25.86, 25.86, 25.86 a.u.

 SYSTEM =  Cu FCC                                  
 POSCAR =  Copper  [FCC,FCC,cF4] (STD_PRIM doi:10.1

 Startparameter for this run:
   NWRITE =      2    write-flag & timer
   PREC   = accura    normal or accurate (medium, high low for compatibility)
   ISTART =      0    job   : 0-new  1-cont  2-samecut
   ICHARG =      2    charge: 1-file 2-atom 10-const
   ISPIN  =      1    spin polarized calculation?
   LNONCOLLINEAR =      F non collinear calculations
   LSORBIT =      F    spin-orbit coupling
   INIWAV =      1    electr: 0-lowe 1-rand  2-diag
   LASPH  =      F    aspherical Exc in radial PAW
 Electronic Relaxation 1
   ENCUT  =  520.0 eV  38.22 Ry    6.18 a.u.   4.78  4.78  4.78*2*pi/ulx,y,z
   ENINI  =  520.0     initial cutoff
   ENAUG  =  587.0 eV  augmentation charge cutoff
   NELM   =     60;   NELMIN=  2; NELMDL=  0     # of ELM steps 
   EDIFF  = 0.1E-09   stopping-criterion for ELM
   LREAL  =      F    real-space projection
   NLSPLINE    = F    spline interpolate recip. space projectors
   LCOMPAT=      F    compatible to vasp.4.4
   GGA_COMPAT  = T    GGA compatible to vasp.4.4-vasp.4.6
   LMAXPAW     = -100 max onsite density
   LMAXMIX     =    2 max onsite mixed and CHGCAR
   VOSKOWN=      0    Vosko Wilk Nusair interpolation
   ROPT   =    0.00000
 Ionic relaxation
   EDIFFG = -.1E-04   stopping-criterion for IOM
   NSW    =    100    number of steps for IOM
   NBLOCK =      1;   KBLOCK =    100    inner block; outer block 
   IBRION =      2    ionic relax: 0-MD 1-quasi-New 2-CG
   NFREE  =      1    steps in history (QN), initial steepest desc. (CG)
   ISIF   =      3    stress and relaxation
   IWAVPR =     11    prediction:  0-non 1-charg 2-wave 3-comb
   ISYM   =      2    0-nonsym 1-usesym 2-fastsym
   LCORR  =      T    Harris-Foulkes like correction to forces

   POTIM  = 0.5000    time-step for ionic-motion
   TEIN   =    0.0    initial temperature
   TEBEG  =    0.0;   TEEND  =   0.0 temperature during run
   SMASS  =  -3.00    Nose mass-parameter (am)
   estimated Nose-frequenzy (Omega)   =  0.10E-29 period in steps = 0.13E+47 mass=  -0.151E-27a.u.
   SCALEE = 1.0000    scale energy and forces
   NPACO  =    256;   APACO  = 10.0  distance and # of slots for P.C.
   PSTRESS=    0.0 pullay stress

  Mass of Ions in am
   POMASS =  63.55
  Ionic Valenz
   ZVAL   =  11.00
  Atomic Wigner-Seitz radii
   RWIGS  =  -1.00
  virtual crystal weights 
   VCA    =   1.00
   NELECT =      11.0000    total number of electrons
   NUPDOWN=      -1.0000    fix difference up-down

 DOS related values:
   EMIN   =  10.00;   EMAX   =-10.00  energy-range for DOS
   EFERMI =   0.00;   METHOD = LEGACY      
   ISMEAR =     0;   SIGMA  =   0.03  broadening in eV -4-tet -1-fermi 0-gaus

 Electronic relaxation 2 (details)
   IALGO  =     38    algorithm
   LDIAG  =      T    sub-space diagonalisation (order eigenvalues)
   LSUBROT=      F    optimize rotation matrix (better conditioning)
   TURBO    =      0    0=normal 1=particle mesh
   IRESTART =      0    0=no restart 2=restart with 2 vectors
   NREBOOT  =      0    no. of reboots
   NMIN     =      0    reboot dimension
   EREF     =   0.00    reference energy to select bands
   IMIX   =      4    mixing-type and parameters
     AMIX     =   0.40;   BMIX     =  1.00
     AMIX_MAG =   1.60;   BMIX_MAG =  1.00
     AMIN     =   0.10
     WC   =   100.;   INIMIX=   1;  MIXPRE=   1;  MAXMIX= -45

 Intra band minimization:
   WEIMIN = 0.0010     energy-eigenvalue tresh-hold
   EBREAK =  0.21E-11  absolut break condition
   DEPER  =   0.30     relativ break condition  

   TIME   =   0.40     timestep for ELM

  volume/ion in A,a.u.               =      12.02        81.13
  Fermi-wavevector in a.u.,A,eV,Ry     =   1.589324  3.003386 34.367634  2.525950
  Thomas-Fermi vector in A             =   2.688191
 
 Write flags
   LWAVE        =      F    write WAVECAR
   LDOWNSAMPLE  =      F    k-point downsampling of WAVECAR
   LCHARG       =      F    write CHGCAR
   LVTOT        =      F    write LOCPOT, total local potential
   LVHAR        =      F    write LOCPOT, Hartree potential only
   LELF         =      F    write electronic localiz. function (ELF)
   LORBIT       =      0    0 simple, 1 ext, 2 COOP (PROOUT), +10 PAW based schemes


 Dipole corrections
   LMONO  =      F    monopole corrections only (constant potential shift)
   LDIPOL =      F    correct potential (dipole corrections)
   IDIPOL =      0    1-x, 2-y, 3-z, 4-all directions 
   EPSILON=  1.0000000 bulk dielectric constant

 Exchange correlation treatment:
   GGA     =    PE    GGA type
   LEXCH   =     8    internal setting for exchange type
   LIBXC   =     F    Libxc                    
   VOSKOWN =     0    Vosko Wilk Nusair interpolation
   LHFCALC =     F    Hartree Fock is set to
   LHFONE  =     F    Hartree Fock one center treatment
   AEXX    =    0.0000 exact exchange contribution

 Linear response parameters
   LEPSILON=     F    determine dielectric tensor
   LRPA    =     F    only Hartree local field effects (RPA)
   LNABLA  =     F    use nabla operator in PAW spheres
   LVEL    =     F    velocity operator in full k-point grid
   CSHIFT  =0.1000    complex shift for real part using Kramers Kronig
   OMEGAMAX=  -1.0    maximum frequency
   DEG_THRESHOLD= 0.2000000E-02 threshold for treating states as degnerate
   RTIME   =   -0.100 relaxation time in fs
  (WPLASMAI=    0.000 imaginary part of plasma frequency in eV, 0.658/RTIME)
   DFIELD  = 0.0000000 0.0000000 0.0000000 field for delta impulse in time
 
  Optional k-point grid parameters
   LKPOINTS_OPT  =     F    use optional k-point grid
   KPOINTS_OPT_MODE=     1    mode for optional k-point grid
 
 Orbital magnetization related:
   ORBITALMAG=     F  switch on orbital magnetization
   LCHIMAG   =     F  perturbation theory with respect to B field
   DQ        =  0.001000  dq finite difference perturbation B field
   LLRAUG    =     F  two centre corrections for induced B field
   LBONE     =     F  B-component reconstruction in AE one-centre
   LVGVCALC  =     T  calculate vGv susceptibility
   LVGVAPPL  =     F  apply vGv susceptibility instead of pGv for G=0

 Random number generation:
   RANDOM_GENERATOR = DEFAULT
   PCG_SEED         = not used


--------------------------------------------------------------------------------------------------------


 conjugate gradient relaxation of ions
 charge density and potential will be updated during run
 non-spin polarized calculation
 Variant of blocked Davidson
 Davidson routine will perform the subspace rotation
 perform sub-space diagonalisation
    after iterative eigenvector-optimisation
 modified Broyden-mixing scheme, WC =      100.0
 initial mixing is a Kerker type mixing with AMIX =  0.4000 and BMIX =      1.0000
 Hartree-type preconditioning will be used
 using additional bands            6
 reciprocal scheme for non local part
 use partial core corrections
 calculate Harris-corrections to forces 
   (improved forces if not selfconsistent)
 use gradient corrections 
 use of overlap-Matrix (Vanderbilt PP)
 Gauss-broadening in eV      SIGMA  =   0.03


--------------------------------------------------------------------------------------------------------


  energy-cutoff  :      520.00
  volume of cell :       12.02
      direct lattice vectors                 reciprocal lattice vectors
     0.000000000  1.818235077  1.818235077    -0.274991945  0.274991945  0.274991945
     1.818235077  0.000000000  1.818235077     0.274991945 -0.274991945  0.274991945
     1.818235077  1.818235077  0.000000000     0.274991945  0.274991945 -0.274991945

  length of vectors
     2.571372705  2.571372705  2.571372705     0.476300020  0.476300020  0.476300020


 
 k-points in units of 2pi/SCALE and weight: KPOINTS                                 
   0.00000000  0.00000000  0.00000000       0.001
  -0.02749919  0.02749919  0.02749919       0.008
  -0.05499839  0.05499839  0.05499839       0.008
  -0.08249758  0.08249758  0.08249758       0.008
  -0.10999678  0.10999678  0.10999678       0.008
  -0.13749597  0.13749597  0.13749597       0.004
   0.00000000  0.00000000  0.05499839       0.006
  -0.02749919  0.02749919  0.08249758       0.024
  -0.05499839  0.05499839  0.10999678       0.024
  -0.08249758  0.08249758  0.13749597       0.024
  -0.10999678  0.10999678  0.16499517       0.024
   0.13749597 -0.13749597 -0.08249758       0.024
   0.10999678 -0.10999678 -0.05499839       0.024
   0.08249758 -0.08249758 -0.02749919       0.024
   0.05499839 -0.05499839  0.00000000       0.012
   0.00000000  0.00000000  0.10999678       0.006
  -0.02749919  0.02749919  0.13749597       0.024
  -0.05499839  0.05499839  0.16499517       0.024
  -0.08249758  0.08249758  0.19249436       0.024
   0.16499517 -0.16499517 -0.05499839       0.024
   0.13749597 -0.13749597 -0.02749919       0.024
   0.10999678 -0.10999678  0.00000000       0.012
   0.00000000  0.00000000  0.16499517       0.006
  -0.02749919  0.02749919  0.19249436       0.024
  -0.05499839  0.05499839  0.21999356       0.024
   0.19249436 -0.19249436 -0.02749919       0.024
   0.16499517 -0.16499517  0.00000000       0.012
   0.00000000  0.00000000  0.21999356       0.006
  -0.02749919  0.02749919  0.24749275       0.024
   0.21999356 -0.21999356  0.00000000       0.012
   0.00000000  0.00000000  0.27499194       0.003
   0.00000000  0.05499839  0.10999678       0.024
  -0.02749919  0.08249758  0.13749597       0.048
  -0.05499839  0.10999678  0.16499517       0.048
   0.19249436 -0.13749597 -0.08249758       0.024
   0.00000000  0.05499839  0.16499517       0.024
  -0.02749919  0.08249758  0.19249436       0.048
   0.21999356 -0.16499517 -0.05499839       0.048
   0.19249436 -0.13749597 -0.02749919       0.048
   0.16499517 -0.10999678 -0.00000000       0.024
   0.00000000  0.05499839  0.21999356       0.024
   0.24749275 -0.19249436 -0.02749919       0.048
   0.21999356 -0.16499517  0.00000000       0.024
   0.27499194 -0.21999356 -0.00000000       0.012
   0.27499194 -0.16499517 -0.05499839       0.024
   0.24749275 -0.13749597 -0.02749919       0.024
   0.27499194 -0.16499517 -0.00000000       0.012
 
 k-points in reciprocal lattice and weights: KPOINTS                                 
   0.00000000  0.00000000  0.00000000       0.001
   0.10000000  0.00000000  0.00000000       0.008
   0.20000000  0.00000000  0.00000000       0.008
   0.30000000  0.00000000  0.00000000       0.008
   0.40000000  0.00000000  0.00000000       0.008
   0.50000000  0.00000000  0.00000000       0.004
   0.10000000  0.10000000  0.00000000       0.006
   0.20000000  0.10000000  0.00000000       0.024
   0.30000000  0.10000000  0.00000000       0.024
   0.40000000  0.10000000  0.00000000       0.024
   0.50000000  0.10000000  0.00000000       0.024
  -0.40000000  0.10000000  0.00000000       0.024
  -0.30000000  0.10000000  0.00000000       0.024
  -0.20000000  0.10000000  0.00000000       0.024
  -0.10000000  0.10000000  0.00000000       0.012
   0.20000000  0.20000000  0.00000000       0.006
   0.30000000  0.20000000  0.00000000       0.024
   0.40000000  0.20000000  0.00000000       0.024
   0.50000000  0.20000000  0.00000000       0.024
  -0.40000000  0.20000000  0.00000000       0.024
  -0.30000000  0.20000000  0.00000000       0.024
  -0.20000000  0.20000000  0.00000000       0.012
   0.30000000  0.30000000  0.00000000       0.006
   0.40000000  0.30000000  0.00000000       0.024
   0.50000000  0.30000000  0.00000000       0.024
  -0.40000000  0.30000000  0.00000000       0.024
  -0.30000000  0.30000000  0.00000000       0.012
   0.40000000  0.40000000  0.00000000       0.006
   0.50000000  0.40000000  0.00000000       0.024
  -0.40000000  0.40000000  0.00000000       0.012
   0.50000000  0.50000000  0.00000000       0.003
   0.30000000  0.20000000  0.10000000       0.024
   0.40000000  0.20000000  0.10000000       0.048
   0.50000000  0.20000000  0.10000000       0.048
  -0.40000000  0.20000000  0.10000000       0.024
   0.40000000  0.30000000  0.10000000       0.024
   0.50000000  0.30000000  0.10000000       0.048
  -0.40000000  0.30000000  0.10000000       0.048
  -0.30000000  0.30000000  0.10000000       0.048
  -0.20000000  0.30000000  0.10000000       0.024
   0.50000000  0.40000000  0.10000000       0.024
  -0.40000000  0.40000000  0.10000000       0.048
  -0.30000000  0.40000000  0.10000000       0.024
  -0.40000000  0.50000000  0.10000000       0.012
  -0.40000000  0.40000000  0.20000000       0.024
  -0.30000000  0.40000000  0.20000000       0.024
  -0.30000000  0.50000000  0.20000000       0.012
 
 position of ions in fractional coordinates (direct lattice) 
   0.00000000  0.00000000  0.00000000
 
 position of ions in cartesian coordinates  (Angst):
   0.00000000  0.00000000  0.00000000
 


--------------------------------------------------------------------------------------------------------


 k-point   1 :   0.0000 0.0000 0.0000  plane waves:     331
 k-point   2 :   0.1000 0.0000 0.0000  plane waves:     329
 k-point   3 :   0.2000 0.0000 0.0000  plane waves:     320
 k-point   4 :   0.3000 0.0000 0.0000  plane waves:     317
 k-point   5 :   0.4000 0.0000 0.0000  plane waves:     323
 k-point   6 :   0.5000 0.0000 0.0000  plane waves:     332
 k-point   7 :   0.1000 0.1000 0.0000  plane waves:     327
 k-point   8 :   0.2000 0.1000 0.0000  plane waves:     321
 k-point   9 :   0.3000 0.1000 0.0000  plane waves:     322
 k-point  10 :   0.4000 0.1000 0.0000  plane waves:     328
 k-point  11 :   0.5000 0.1000 0.0000  plane waves:     329
 k-point  12 :  -0.4000 0.1000 0.0000  plane waves:     326
 k-point  13 :  -0.3000 0.1000 0.0000  plane waves:     320
 k-point  14 :  -0.2000 0.1000 0.0000  plane waves:     320
 k-point  15 :  -0.1000 0.1000 0.0000  plane waves:     325
 k-point  16 :   0.2000 0.2000 0.0000  plane waves:     323
 k-point  17 :   0.3000 0.2000 0.0000  plane waves:     322
 k-point  18 :   0.4000 0.2000 0.0000  plane waves:     324
 k-point  19 :   0.5000 0.2000 0.0000  plane waves:     323
 k-point  20 :  -0.4000 0.2000 0.0000  plane waves:     328
 k-point  21 :  -0.3000 0.2000 0.0000  plane waves:     325
 k-point  22 :  -0.2000 0.2000 0.0000  plane waves:     323
 k-point  23 :   0.3000 0.3000 0.0000  plane waves:     323
 k-point  24 :   0.4000 0.3000 0.0000  plane waves:     327
 k-point  25 :   0.5000 0.3000 0.0000  plane waves:     326
 k-point  26 :  -0.4000 0.3000 0.0000  plane waves:     324
 k-point  27 :  -0.3000 0.3000 0.0000  plane waves:     329
 k-point  28 :   0.4000 0.4000 0.0000  plane waves:     322
 k-point  29 :   0.5000 0.4000 0.0000  plane waves:     328
 k-point  30 :  -0.4000 0.4000 0.0000  plane waves:     322
 k-point  31 :   0.5000 0.5000 0.0000  plane waves:     326
 k-point  32 :   0.3000 0.2000 0.1000  plane waves:     320
 k-point  33 :   0.4000 0.2000 0.1000  plane waves:     321
 k-point  34 :   0.5000 0.2000 0.1000  plane waves:     323
 k-point  35 :  -0.4000 0.2000 0.1000  plane waves:     326
 k-point  36 :   0.4000 0.3000 0.1000  plane waves:     323
 k-point  37 :   0.5000 0.3000 0.1000  plane waves:     324
 k-point  38 :  -0.4000 0.3000 0.1000  plane waves:     322
 k-point  39 :  -0.3000 0.3000 0.1000  plane waves:     324
 k-point  40 :  -0.2000 0.3000 0.1000  plane waves:     324
 k-point  41 :   0.5000 0.4000 0.1000  plane waves:     326
 k-point  42 :  -0.4000 0.4000 0.1000  plane waves:     327
 k-point  43 :  -0.3000 0.4000 0.1000  plane waves:     325
 k-point  44 :  -0.4000 0.5000 0.1000  plane waves:     324
 k-point  45 :  -0.4000 0.4000 0.2000  plane waves:     325
 k-point  46 :  -0.3000 0.4000 0.2000  plane waves:     324
 k-point  47 :  -0.3000 0.5000 0.2000  plane waves:     322

 maximum and minimum number of plane-waves per node :       332      317

 maximum number of plane-waves:       332
 maximum index in each direction: 
   IXMAX=    5   IYMAX=    4   IZMAX=    4
   IXMIN=   -5   IYMIN=   -5   IZMIN=   -4


 serial   3D FFT for wavefunctions
 parallel 3D FFT for charge:
    minimum data exchange during FFTs selected (reduces bandwidth)


 total amount of memory used by VASP MPI-rank0    34776. kBytes
=======================================================================

   base      :      30000. kBytes
   nonl-proj :       2252. kBytes
   fftplans  :        595. kBytes
   grid      :       1120. kBytes
   one-center:         15. kBytes
   wavefun   :        794. kBytes
 
     INWAV:  cpu time      0.0001: real time      0.0003
 Broyden mixing: mesh for mixing (old mesh)
   NGX =  9   NGY =  9   NGZ =  9
  (NGX  = 40   NGY  = 40   NGZ  = 40)
  gives a total of    729 points

 initial charge density was supplied:
 charge density of overlapping atoms calculated
 number of electron      11.0000000 magnetization 
 keeping initial charge density in first step


--------------------------------------------------------------------------------------------------------


 Maximum index for augmentation-charges         4713 (set IRDMAX)


--------------------------------------------------------------------------------------------------------


 First call to EWALD:  gamma=   0.774
 Maximum number of real-space cells 3x 3x 3
 Maximum number of reciprocal cells 3x 3x 3

    FEWALD:  cpu time      0.0013: real time      0.0013


--------------------------------------- Ionic step        1  -------------------------------------------




--------------------------------------- Iteration      1(   1)  ---------------------------------------


    POTLOK:  cpu time      0.0119: real time      0.0204
    SETDIJ:  cpu time      0.0063: real time      0.0085
     EDDAV:  cpu time      0.2670: real time      0.2994
       DOS:  cpu time      0.0007: real time      0.0051
    --------------------------------------------
      LOOP:  cpu time      0.2859: real time      0.3336

 eigenvalue-minimisations  :  1276
 total energy-change (2. order) : 0.3943891E+02  (-0.5352172E+03)
 number of electron      11.0000000 magnetization 
 augmentation part       11.0000000 magnetization 

 Free energy of the ion-electron system (eV)
  ---------------------------------------------------
  alpha Z        PSCENC =        60.83200522
  Ewald energy   TEWEN  =     -1098.39284620
  -Hartree energ DENC   =      -365.41074940
  -exchange      EXHF   =         0.00000000
  -V(xc)+E(xc)   XCENC  =        45.73587495
  PAW double counting   =      1228.20665988    -1334.04846713
  entropy T*S    EENTRO =        -0.00040518
  eigenvalues    EBANDS =       111.53978762
  atomic energy  EATOM  =      1390.97705399
  Solvation  Ediel_sol  =         0.00000000
  ---------------------------------------------------
  free energy    TOTEN  =        39.43891375 eV

  energy without entropy =       39.43931894  energy(sigma->0) =       39.43911635


--------------------------------------------------------------------------------------------------------




--------------------------------------- Iteration      1(   2)  ---------------------------------------


     EDDAV:  cpu time      0.2426: real time      0.2456
       DOS:  cpu time      0.0005: real time      0.0005
    --------------------------------------------
      LOOP:  cpu time      0.2431: real time      0.2460

 eigenvalue-minimisations  :  1168
 total energy-change (2. order) :-0.4277315E+02  (-0.3905878E+02)
 number of electron      11.0000000 magnetization 
 augmentation part       11.0000000 magnetization 

 Free energy of the ion-electron system (eV)
  ---------------------------------------------------
  alpha Z        PSCENC =        60.83200522
  Ewald energy   TEWEN  =     -1098.39284620
  -Hartree energ DENC   =      -365.41074940
  -exchange      EXHF   =         0.00000000
  -V(xc)+E(xc)   XCENC  =        45.73587495
  PAW double counting   =      1228.20665988    -1334.04846713
  entropy T*S    EENTRO =        -0.00045470
  eigenvalues    EBANDS =        68.76668631
  atomic energy  EATOM  =      1390.97705399
  Solvation  Ediel_sol  =         0.00000000
  ---------------------------------------------------
  free energy    TOTEN  =        -3.33423707 eV

  energy without entropy =       -3.33378237  energy(sigma->0) =       -3.33400972


--------------------------------------------------------------------------------------------------------




--------------------------------------- Iteration      1(   3)  ---------------------------------------


     EDDAV:  cpu time      0.2682: real time      0.2715
       DOS:  cpu time      0.0005: real time      0.0005
    --------------------------------------------
      LOOP:  cpu time      0.2687: real time      0.2720

 eigenvalue-minimisations  :  1348
 total energy-change (2. order) :-0.1268381E+01  (-0.1252878E+01)
 number of electron      11.0000000 magnetization 
 augmentation part       11.0000000 magnetization 

 Free energy of the ion-electron system (eV)
  ---------------------------------------------------
  alpha Z        PSCENC =        60.83200522
  Ewald energy   TEWEN  =     -1098.39284620
  -Hartree energ DENC   =      -365.41074940
  -exchange      EXHF   =         0.00000000
  -V(xc)+E(xc)   XCENC  =        45.73587495
  PAW double counting   =      1228.20665988    -1334.04846713
  entropy T*S    EENTRO =        -0.00037108
  eigenvalues    EBANDS =        67.49822157
  atomic energy  EATOM  =      1390.97705399
  Solvation  Ediel_sol  =         0.00000000
  ---------------------------------------------------
  free energy    TOTEN  =        -4.60261820 eV

  energy without entropy =       -4.60224711  energy(sigma->0) =       -4.60243266


--------------------------------------------------------------------------------------------------------




--------------------------------------- Iteration      1(   4)  ---------------------------------------


     EDDAV:  cpu time      0.2641: real time      0.2811
       DOS:  cpu time      0.0006: real time      0.0006
    --------------------------------------------
      LOOP:  cpu time      0.2647: real time      0.2818

 eigenvalue-minimisations  :  1300
 total energy-change (2. order) :-0.9315776E-02  (-0.9314952E-02)
 number of electron      11.0000000 magnetization 
 augmentation part       11.0000000 magnetization 

 Free energy of the ion-electron system (eV)
  ---------------------------------------------------
  alpha Z        PSCENC =        60.83200522
  Ewald energy   TEWEN  =     -1098.39284620
  -Hartree energ DENC   =      -365.41074940
  -exchange      EXHF   =         0.00000000
  -V(xc)+E(xc)   XCENC  =        45.73587495
  PAW double counting   =      1228.20665988    -1334.04846713
  entropy T*S    EENTRO =        -0.00037229
  eigenvalues    EBANDS =        67.48890699
  atomic energy  EATOM  =      1390.97705399
  Solvation  Ediel_sol  =         0.00000000
  ---------------------------------------------------
  free energy    TOTEN  =        -4.61193397 eV

  energy without entropy =       -4.61156169  energy(sigma->0) =       -4.61174783


--------------------------------------------------------------------------------------------------------




--------------------------------------- Iteration      1(   5)  ---------------------------------------


     EDDAV:  cpu time      0.2724: real time      0.2757
       DOS:  cpu time      0.0005: real time      0.0005
    CHARGE:  cpu time      0.0173: real time      0.0174
    MIXING:  cpu time      0.0005: real time      0.0020
    --------------------------------------------
      LOOP:  cpu time      0.2907: real time      0.2956

 eigenvalue-minimisations  :  1356
 total energy-change (2. order) :-0.9056856E-04  (-0.9056850E-04)
 number of electron      10.9999996 magnetization 
 augmentation part        6.4912595 magnetization 

 Broyden mixing:
  rms(total) = 0.76299E+00    rms(broyden)= 0.76298E+00
  rms(prec ) = 0.29011E+01
  weight for this iteration     100.00

 Free energy of the ion-electron system (eV)
  ---------------------------------------------------
  alpha Z        PSCENC =        60.83200522
  Ewald energy   TEWEN  =     -1098.39284620
  -Hartree energ DENC   =      -365.41074940
  -exchange      EXHF   =         0.00000000
  -V(xc)+E(xc)   XCENC  =        45.73587495
  PAW double counting   =      1228.20665988    -1334.04846713
  entropy T*S    EENTRO =        -0.00037229
  eigenvalues    EBANDS =        67.48881643
  atomic energy  EATOM  =      1390.97705399
  Solvation  Ediel_sol  =         0.00000000
  ---------------------------------------------------
  free energy    TOTEN  =        -4.61202454 eV

  energy without entropy =       -4.61165225  energy(sigma->0) =       -4.61183840


--------------------------------------------------------------------------------------------------------




--------------------------------------- Iteration      1(   6)  ---------------------------------------


    POTLOK:  cpu time      0.0110: real time      0.0123
    SETDIJ:  cpu time      0.0026: real time      0.0026
     EDDAV:  cpu time      0.2676: real time      0.2705
       DOS:  cpu time      0.0005: real time      0.0005
    CHARGE:  cpu time      0.0169: real time      0.0171
    MIXING:  cpu time      0.0006: real time      0.0006
    --------------------------------------------
      LOOP:  cpu time      0.2992: real time      0.3035

 eigenvalue-minimisations  :  1336
 total energy-change (2. order) : 0.5073199E+00  (-0.1455102E+01)
 number of electron      10.9999995 magnetization 
 augmentation part        7.3220347 magnetization 

 Broyden mixing:
  rms(total) = 0.40090E+00    rms(broyden)= 0.40088E+00
  rms(prec ) = 0.13858E+01
  weight for this iteration     100.00

 eigenvalues of (default mixing * dielectric matrix)
  average eigenvalue GAMMA=   0.6562
  0.6562

 Free energy of the ion-electron system (eV)
  ---------------------------------------------------
  alpha Z        PSCENC =        60.83200522
  Ewald energy   TEWEN  =     -1098.39284620
  -Hartree energ DENC   =      -337.43039549
  -exchange      EXHF   =         0.00000000
  -V(xc)+E(xc)   XCENC  =        44.34897686
  PAW double counting   =      1244.87170982    -1345.15806303
  entropy T*S    EENTRO =        -0.00046595
  eigenvalues    EBANDS =        35.84732011
  atomic energy  EATOM  =      1390.97705399
  Solvation  Ediel_sol  =         0.00000000
  ---------------------------------------------------
  free energy    TOTEN  =        -4.10470468 eV

  energy without entropy =       -4.10423873  energy(sigma->0) =       -4.10447170


--------------------------------------------------------------------------------------------------------




--------------------------------------- Iteration      1(   7)  ---------------------------------------


    POTLOK:  cpu time      0.0113: real time      0.0124
    SETDIJ:  cpu time      0.0026: real time      0.0026
     EDDAV:  cpu time      0.2657: real time      0.2684
       DOS:  cpu time      0.0005: real time      0.0005
    CHARGE:  cpu time      0.0187: real time      0.0188
    MIXING:  cpu time      0.0006: real time      0.0006
    --------------------------------------------
      LOOP:  cpu time      0.2993: real time      0.3034

 eigenvalue-minimisations  :  1336
 total energy-change (2. order) : 0.3792127E+00  (-0.2357402E+00)
 number of electron      10.9999996 magnetization 
 augmentation part        6.9974200 magnetization 

 Broyden mixing:
  rms(total) = 0.56190E-01    rms(broyden)= 0.56181E-01
  rms(prec ) = 0.23200E+00
  weight for this iteration     100.00

 eigenvalues of (default mixing * dielectric matrix)
  average eigenvalue GAMMA=   1.4144
  2.1960  0.6329

 Free energy of the ion-electron system (eV)
  ---------------------------------------------------
  alpha Z        PSCENC =        60.83200522
  Ewald energy   TEWEN  =     -1098.39284620
  -Hartree energ DENC   =      -346.21502473
  -exchange      EXHF   =         0.00000000
  -V(xc)+E(xc)   XCENC  =        44.80739423
  PAW double counting   =      1269.09132849    -1374.18455265
  entropy T*S    EENTRO =        -0.00036006
  eigenvalues    EBANDS =        49.35950973
  atomic energy  EATOM  =      1390.97705399
  Solvation  Ediel_sol  =         0.00000000
  ---------------------------------------------------
  free energy    TOTEN  =        -3.72549197 eV

  energy without entropy =       -3.72513191  energy(sigma->0) =       -3.72531194


--------------------------------------------------------------------------------------------------------




--------------------------------------- Iteration      1(   8)  ---------------------------------------


    POTLOK:  cpu time      0.0127: real time      0.0137
    SETDIJ:  cpu time      0.0032: real time      0.0033
     EDDAV:  cpu time      0.2559: real time      0.2580
       DOS:  cpu time      0.0005: real time      0.0005
    CHARGE:  cpu time      0.0173: real time      0.0175
    MIXING:  cpu time      0.0005: real time      0.0005
    --------------------------------------------
      LOOP:  cpu time      0.2901: real time      0.2934

 eigenvalue-minimisations  :  1312
 total energy-change (2. order) : 0.1028206E-01  (-0.4571718E-03)
 number of electron      10.9999996 magnetization 
 augmentation part        6.9933824 magnetization 

 Broyden mixing:
  rms(total) = 0.31134E-01    rms(broyden)= 0.31133E-01
  rms(prec ) = 0.12158E+00
  weight for this iteration     100.00

 eigenvalues of (default mixing * dielectric matrix)
  average eigenvalue GAMMA=   1.4150
  0.6493  1.0059  2.5899

 Free energy of the ion-electron system (eV)
  ---------------------------------------------------
  alpha Z        PSCENC =        60.83200522
  Ewald energy   TEWEN  =     -1098.39284620
  -Hartree energ DENC   =      -343.32541314
  -exchange      EXHF   =         0.00000000
  -V(xc)+E(xc)   XCENC  =        44.68856810
  PAW double counting   =      1305.98427465    -1413.64160397
  entropy T*S    EENTRO =        -0.00035583
  eigenvalues    EBANDS =        49.16310726
  atomic energy  EATOM  =      1390.97705399
  Solvation  Ediel_sol  =         0.00000000
  ---------------------------------------------------
  free energy    TOTEN  =        -3.71520991 eV

  energy without entropy =       -3.71485408  energy(sigma->0) =       -3.71503200


--------------------------------------------------------------------------------------------------------




--------------------------------------- Iteration      1(   9)  ---------------------------------------


    POTLOK:  cpu time      0.0116: real time      0.0121
    SETDIJ:  cpu time      0.0026: real time      0.0026
     EDDAV:  cpu time      0.2635: real time      0.2658
       DOS:  cpu time      0.0005: real time      0.0005
    CHARGE:  cpu time      0.0168: real time      0.0169
    MIXING:  cpu time      0.0005: real time      0.0005
    --------------------------------------------
      LOOP:  cpu time      0.2955: real time      0.2985

 eigenvalue-minimisations  :  1400
 total energy-change (2. order) : 0.1702917E-02  (-0.1071503E-02)
 number of electron      10.9999996 magnetization 
 augmentation part        7.0155581 magnetization 

 Broyden mixing:
  rms(total) = 0.31004E-02    rms(broyden)= 0.30995E-02
  rms(prec ) = 0.10896E-01
  weight for this iteration     100.00

 eigenvalues of (default mixing * dielectric matrix)
  average eigenvalue GAMMA=   1.5970
  0.6519  0.9524  2.6116  2.1722

 Free energy of the ion-electron system (eV)
  ---------------------------------------------------
  alpha Z        PSCENC =        60.83200522
  Ewald energy   TEWEN  =     -1098.39284620
  -Hartree energ DENC   =      -342.10584243
  -exchange      EXHF   =         0.00000000
  -V(xc)+E(xc)   XCENC  =        44.63252855
  PAW double counting   =      1312.27425551    -1420.16240489
  entropy T*S    EENTRO =        -0.00034956
  eigenvalues    EBANDS =        48.23209281
  atomic energy  EATOM  =      1390.97705399
  Solvation  Ediel_sol  =         0.00000000
  ---------------------------------------------------
  free energy    TOTEN  =        -3.71350700 eV

  energy without entropy =       -3.71315744  energy(sigma->0) =       -3.71333222


--------------------------------------------------------------------------------------------------------




--------------------------------------- Iteration      1(  10)  ---------------------------------------


    POTLOK:  cpu time      0.0112: real time      0.0119
    SETDIJ:  cpu time      0.0025: real time      0.0025
     EDDAV:  cpu time      0.2997: real time      0.3024
       DOS:  cpu time      0.0006: real time      0.0006
    CHARGE:  cpu time      0.0167: real time      0.0169
    MIXING:  cpu time      0.0006: real time      0.0006
    --------------------------------------------
      LOOP:  cpu time      0.3312: real time      0.3349

 eigenvalue-minimisations  :  1660
 total energy-change (2. order) :-0.8621289E-06  (-0.3968205E-05)
 number of electron      10.9999996 magnetization 
 augmentation part        7.0145690 magnetization 

 Broyden mixing:
  rms(total) = 0.10020E-02    rms(broyden)= 0.10020E-02
  rms(prec ) = 0.32856E-02
  weight for this iteration     100.00

 eigenvalues of (default mixing * dielectric matrix)
  average eigenvalue GAMMA=   1.5335
  2.6096  2.5217  0.6516  0.9423  0.9423

 Free energy of the ion-electron system (eV)
  ---------------------------------------------------
  alpha Z        PSCENC =        60.83200522
  Ewald energy   TEWEN  =     -1098.39284620
  -Hartree energ DENC   =      -342.20413293
  -exchange      EXHF   =         0.00000000
  -V(xc)+E(xc)   XCENC  =        44.63731126
  PAW double counting   =      1311.46135807    -1419.29551407
  entropy T*S    EENTRO =        -0.00034958
  eigenvalues    EBANDS =        48.27160637
  atomic energy  EATOM  =      1390.97705399
  Solvation  Ediel_sol  =         0.00000000
  ---------------------------------------------------
  free energy    TOTEN  =        -3.71350786 eV

  energy without entropy =       -3.71315828  energy(sigma->0) =       -3.71333307


--------------------------------------------------------------------------------------------------------




--------------------------------------- Iteration      1(  11)  ---------------------------------------


    POTLOK:  cpu time      0.0110: real time      0.0128
    SETDIJ:  cpu time      0.0025: real time      0.0025
     EDDAV:  cpu time      0.2636: real time      0.2659
       DOS:  cpu time      0.0005: real time      0.0005
    CHARGE:  cpu time      0.0168: real time      0.0169
    MIXING:  cpu time      0.0005: real time      0.0005
    --------------------------------------------
      LOOP:  cpu time      0.2948: real time      0.2991

 eigenvalue-minimisations  :  1404
 total energy-change (2. order) : 0.1325944E-05  (-0.1979850E-06)
 number of electron      10.9999996 magnetization 
 augmentation part        7.0142970 magnetization 

 Broyden mixing:
  rms(total) = 0.24768E-04    rms(broyden)= 0.24746E-04
  rms(prec ) = 0.69150E-04
  weight for this iteration     100.00

 eigenvalues of (default mixing * dielectric matrix)
  average eigenvalue GAMMA=   1.4942
  2.6356  2.4599  0.6517  0.9393  1.0492  1.2298

 Free energy of the ion-electron system (eV)
  ---------------------------------------------------
  alpha Z        PSCENC =        60.83200522
  Ewald energy   TEWEN  =     -1098.39284620
  -Hartree energ DENC   =      -342.25786857
  -exchange      EXHF   =         0.00000000
  -V(xc)+E(xc)   XCENC  =        44.63998068
  PAW double counting   =      1310.89016661    -1418.68299154
  entropy T*S    EENTRO =        -0.00034958
  eigenvalues    EBANDS =        48.28134286
  atomic energy  EATOM  =      1390.97705399
  Solvation  Ediel_sol  =         0.00000000
  ---------------------------------------------------
  free energy    TOTEN  =        -3.71350653 eV

  energy without entropy =       -3.71315695  energy(sigma->0) =       -3.71333174


--------------------------------------------------------------------------------------------------------




--------------------------------------- Iteration      1(  12)  ---------------------------------------


    POTLOK:  cpu time      0.0112: real time      0.0118
    SETDIJ:  cpu time      0.0025: real time      0.0025
     EDDAV:  cpu time      0.2627: real time      0.2654
       DOS:  cpu time      0.0004: real time      0.0004
    CHARGE:  cpu time      0.0168: real time      0.0170
    MIXING:  cpu time      0.0005: real time      0.0005
    --------------------------------------------
      LOOP:  cpu time      0.2942: real time      0.2977

 eigenvalue-minimisations  :  1336
 total energy-change (2. order) :-0.1075330E-06  (-0.1726714E-08)
 number of electron      10.9999996 magnetization 
 augmentation part        7.0142875 magnetization 

 Broyden mixing:
  rms(total) = 0.14287E-04    rms(broyden)= 0.14286E-04
  rms(prec ) = 0.46646E-04
  weight for this iteration     100.00

 eigenvalues of (default mixing * dielectric matrix)
  average eigenvalue GAMMA=   1.6300
  2.6655  2.6655  2.4458  0.6517  1.0654  0.9879  0.9284

 Free energy of the ion-electron system (eV)
  ---------------------------------------------------
  alpha Z        PSCENC =        60.83200522
  Ewald energy   TEWEN  =     -1098.39284620
  -Hartree energ DENC   =      -342.25739115
  -exchange      EXHF   =         0.00000000
  -V(xc)+E(xc)   XCENC  =        44.63995592
  PAW double counting   =      1310.89926724    -1418.69300455
  entropy T*S    EENTRO =        -0.00034958
  eigenvalues    EBANDS =        48.28180248
  atomic energy  EATOM  =      1390.97705399
  Solvation  Ediel_sol  =         0.00000000
  ---------------------------------------------------
  free energy    TOTEN  =        -3.71350664 eV

  energy without entropy =       -3.71315706  energy(sigma->0) =       -3.71333185


--------------------------------------------------------------------------------------------------------




--------------------------------------- Iteration      1(  13)  ---------------------------------------


    POTLOK:  cpu time      0.0114: real time      0.0120
    SETDIJ:  cpu time      0.0026: real time      0.0026
     EDDAV:  cpu time      0.2945: real time      0.2976
       DOS:  cpu time      0.0004: real time      0.0004
    CHARGE:  cpu time      0.0167: real time      0.0168
    MIXING:  cpu time      0.0006: real time      0.0006
    --------------------------------------------
      LOOP:  cpu time      0.3261: real time      0.3300

 eigenvalue-minimisations  :  1544
 total energy-change (2. order) :-0.2489833E-07  (-0.3050415E-09)
 number of electron      10.9999996 magnetization 
 augmentation part        7.0142789 magnetization 

 Broyden mixing:
  rms(total) = 0.49426E-05    rms(broyden)= 0.49422E-05
  rms(prec ) = 0.18268E-04
  weight for this iteration     100.00

 eigenvalues of (default mixing * dielectric matrix)
  average eigenvalue GAMMA=   1.5873
  2.7564  2.5256  2.5256  0.6517  0.9534  0.9806  1.0473  1.2578

 Free energy of the ion-electron system (eV)
  ---------------------------------------------------
  alpha Z        PSCENC =        60.83200522
  Ewald energy   TEWEN  =     -1098.39284620
  -Hartree energ DENC   =      -342.25804161
  -exchange      EXHF   =         0.00000000
  -V(xc)+E(xc)   XCENC  =        44.63998492
  PAW double counting   =      1310.89021381    -1418.68379110
  entropy T*S    EENTRO =        -0.00034958
  eigenvalues    EBANDS =        48.28226389
  atomic energy  EATOM  =      1390.97705399
  Solvation  Ediel_sol  =         0.00000000
  ---------------------------------------------------
  free energy    TOTEN  =        -3.71350666 eV

  energy without entropy =       -3.71315708  energy(sigma->0) =       -3.71333187


--------------------------------------------------------------------------------------------------------




--------------------------------------- Iteration      1(  14)  ---------------------------------------


    POTLOK:  cpu time      0.0112: real time      0.0123
    SETDIJ:  cpu time      0.0026: real time      0.0026
     EDDAV:  cpu time      0.2007: real time      0.2028
       DOS:  cpu time      0.0005: real time      0.0005
    CHARGE:  cpu time      0.0169: real time      0.0170
    MIXING:  cpu time      0.0006: real time      0.0006
    --------------------------------------------
      LOOP:  cpu time      0.2324: real time      0.2357

 eigenvalue-minimisations  :   884
 total energy-change (2. order) :-0.9415999E-08  (-0.1481323E-10)
 number of electron      10.9999996 magnetization 
 augmentation part        7.0142814 magnetization 

 Broyden mixing:
  rms(total) = 0.41858E-06    rms(broyden)= 0.41853E-06
  rms(prec ) = 0.63797E-06
  weight for this iteration     100.00

 eigenvalues of (default mixing * dielectric matrix)
  average eigenvalue GAMMA=   1.6573
  2.6623  2.6623  2.4934  2.4934  0.6517  1.0146  1.0146  0.9616  0.9616

 Free energy of the ion-electron system (eV)
  ---------------------------------------------------
  alpha Z        PSCENC =        60.83200522
  Ewald energy   TEWEN  =     -1098.39284620
  -Hartree energ DENC   =      -342.25780705
  -exchange      EXHF   =         0.00000000
  -V(xc)+E(xc)   XCENC  =        44.63997376
  PAW double counting   =      1310.89118542    -1418.68488647
  entropy T*S    EENTRO =        -0.00034958
  eigenvalues    EBANDS =        48.28216423
  atomic energy  EATOM  =      1390.97705399
  Solvation  Ediel_sol  =         0.00000000
  ---------------------------------------------------
  free energy    TOTEN  =        -3.71350667 eV

  energy without entropy =       -3.71315709  energy(sigma->0) =       -3.71333188


--------------------------------------------------------------------------------------------------------




--------------------------------------- Iteration      1(  15)  ---------------------------------------


    POTLOK:  cpu time      0.0114: real time      0.0119
    SETDIJ:  cpu time      0.0026: real time      0.0026
     EDDAV:  cpu time      0.1799: real time      0.1819
       DOS:  cpu time      0.0005: real time      0.0005
    CHARGE:  cpu time      0.0167: real time      0.0168
    MIXING:  cpu time      0.0006: real time      0.0006
    --------------------------------------------
      LOOP:  cpu time      0.2117: real time      0.2143

 eigenvalue-minimisations  :   716
 total energy-change (2. order) : 0.1532271E-08  (-0.5303001E-12)
 number of electron      10.9999996 magnetization 
 augmentation part        7.0142812 magnetization 

 Broyden mixing:
  rms(total) = 0.16187E-06    rms(broyden)= 0.16187E-06
  rms(prec ) = 0.45913E-06
  weight for this iteration     100.00

 eigenvalues of (default mixing * dielectric matrix)
  average eigenvalue GAMMA=   1.5722
  2.7619  2.6155  2.4698  2.4698  0.6517  1.0373  0.9734  0.9640  0.9640  0.8146

 Free energy of the ion-electron system (eV)
  ---------------------------------------------------
  alpha Z        PSCENC =        60.83200522
  Ewald energy   TEWEN  =     -1098.39284620
  -Hartree energ DENC   =      -342.25781306
  -exchange      EXHF   =         0.00000000
  -V(xc)+E(xc)   XCENC  =        44.63997403
  PAW double counting   =      1310.89028702    -1418.68398624
  entropy T*S    EENTRO =        -0.00034958
  eigenvalues    EBANDS =        48.28216815
  atomic energy  EATOM  =      1390.97705399
  Solvation  Ediel_sol  =         0.00000000
  ---------------------------------------------------
  free energy    TOTEN  =        -3.71350667 eV

  energy without entropy =       -3.71315709  energy(sigma->0) =       -3.71333188


--------------------------------------------------------------------------------------------------------




--------------------------------------- Iteration      1(  16)  ---------------------------------------


    POTLOK:  cpu time      0.0114: real time      0.0121
    SETDIJ:  cpu time      0.0026: real time      0.0026
     EDDAV:  cpu time      0.1721: real time      0.1738
       DOS:  cpu time      0.0005: real time      0.0005
    CHARGE:  cpu time      0.0168: real time      0.0169
    MIXING:  cpu time      0.0006: real time      0.0006
    --------------------------------------------
      LOOP:  cpu time      0.2039: real time      0.2065

 eigenvalue-minimisations  :   676
 total energy-change (2. order) : 0.1136186E-08  (-0.1861371E-12)
 number of electron      10.9999996 magnetization 
 augmentation part        7.0142813 magnetization 

 Broyden mixing:
  rms(total) = 0.50433E-07    rms(broyden)= 0.50419E-07
  rms(prec ) = 0.13346E-06
  weight for this iteration     100.00

 eigenvalues of (default mixing * dielectric matrix)
  average eigenvalue GAMMA=   1.5659
  2.7944  2.5304  2.5449  2.5449  0.6517  1.1191  1.1191  0.9466  0.9466  0.9661
  1.0607

 Free energy of the ion-electron system (eV)
  ---------------------------------------------------
  alpha Z        PSCENC =        60.83200522
  Ewald energy   TEWEN  =     -1098.39284620
  -Hartree energ DENC   =      -342.25781222
  -exchange      EXHF   =         0.00000000
  -V(xc)+E(xc)   XCENC  =        44.63997398
  PAW double counting   =      1310.89000426    -1418.68370075
  entropy T*S    EENTRO =        -0.00034958
  eigenvalues    EBANDS =        48.28216464
  atomic energy  EATOM  =      1390.97705399
  Solvation  Ediel_sol  =         0.00000000
  ---------------------------------------------------
  free energy    TOTEN  =        -3.71350667 eV

  energy without entropy =       -3.71315709  energy(sigma->0) =       -3.71333188


--------------------------------------------------------------------------------------------------------




--------------------------------------- Iteration      1(  17)  ---------------------------------------


    POTLOK:  cpu time      0.0115: real time      0.0132
    SETDIJ:  cpu time      0.0026: real time      0.0026
     EDDAV:  cpu time      0.1753: real time      0.1771
       DOS:  cpu time      0.0005: real time      0.0005
    CHARGE:  cpu time      0.0169: real time      0.0170
    MIXING:  cpu time      0.0007: real time      0.0007
    --------------------------------------------
      LOOP:  cpu time      0.2075: real time      0.2111

 eigenvalue-minimisations  :   692
 total energy-change (2. order) :-0.6605205E-09  (-0.9345363E-13)
 number of electron      10.9999996 magnetization 
 augmentation part        7.0142813 magnetization 

 Broyden mixing:
  rms(total) = 0.41832E-07    rms(broyden)= 0.41830E-07
  rms(prec ) = 0.12192E-06
  weight for this iteration     100.00

 eigenvalues of (default mixing * dielectric matrix)
  average eigenvalue GAMMA=   1.6332
  2.8262  2.8262  2.5201  2.5201  2.4862  0.6517  1.0404  1.0118  0.9970  0.9970
  0.9503  0.7711

 Free energy of the ion-electron system (eV)
  ---------------------------------------------------
  alpha Z        PSCENC =        60.83200522
  Ewald energy   TEWEN  =     -1098.39284620
  -Hartree energ DENC   =      -342.25780982
  -exchange      EXHF   =         0.00000000
  -V(xc)+E(xc)   XCENC  =        44.63997390
  PAW double counting   =      1310.89003163    -1418.68373231
  entropy T*S    EENTRO =        -0.00034958
  eigenvalues    EBANDS =        48.28216649
  atomic energy  EATOM  =      1390.97705399
  Solvation  Ediel_sol  =         0.00000000
  ---------------------------------------------------
  free energy    TOTEN  =        -3.71350667 eV

  energy without entropy =       -3.71315709  energy(sigma->0) =       -3.71333188


--------------------------------------------------------------------------------------------------------




--------------------------------------- Iteration      1(  18)  ---------------------------------------


    POTLOK:  cpu time      0.0113: real time      0.0120
    SETDIJ:  cpu time      0.0026: real time      0.0026
     EDDAV:  cpu time      0.1715: real time      0.1733
       DOS:  cpu time      0.0004: real time      0.0004
    CHARGE:  cpu time      0.0170: real time      0.0172
    MIXING:  cpu time      0.0007: real time      0.0007
    --------------------------------------------
      LOOP:  cpu time      0.2035: real time      0.2062

 eigenvalue-minimisations  :   660
 total energy-change (2. order) : 0.5957190E-09  (-0.7824303E-13)
 number of electron      10.9999996 magnetization 
 augmentation part        7.0142813 magnetization 

 Broyden mixing:
  rms(total) = 0.31381E-08    rms(broyden)= 0.31226E-08
  rms(prec ) = 0.84464E-08
  weight for this iteration     100.00

 eigenvalues of (default mixing * dielectric matrix)
  average eigenvalue GAMMA=   1.6061
  3.2262  2.7746  2.5368  2.5368  2.5271  0.6517  1.1562  1.0274  0.9914  0.9914
  0.9556  0.8769  0.6267

 Free energy of the ion-electron system (eV)
  ---------------------------------------------------
  alpha Z        PSCENC =        60.83200522
  Ewald energy   TEWEN  =     -1098.39284620
  -Hartree energ DENC   =      -342.25781034
  -exchange      EXHF   =         0.00000000
  -V(xc)+E(xc)   XCENC  =        44.63997391
  PAW double counting   =      1310.89003419    -1418.68373378
  entropy T*S    EENTRO =        -0.00034958
  eigenvalues    EBANDS =        48.28216591
  atomic energy  EATOM  =      1390.97705399
  Solvation  Ediel_sol  =         0.00000000
  ---------------------------------------------------
  free energy    TOTEN  =        -3.71350667 eV

  energy without entropy =       -3.71315709  energy(sigma->0) =       -3.71333188


--------------------------------------------------------------------------------------------------------




--------------------------------------- Iteration      1(  19)  ---------------------------------------


    POTLOK:  cpu time      0.0116: real time      0.0124
    SETDIJ:  cpu time      0.0027: real time      0.0027
     EDDAV:  cpu time      0.1736: real time      0.1754
       DOS:  cpu time      0.0006: real time      0.0006
    CHARGE:  cpu time      0.0182: real time      0.0183
    MIXING:  cpu time      0.0008: real time      0.0008
    --------------------------------------------
      LOOP:  cpu time      0.2076: real time      0.2103

 eigenvalue-minimisations  :   628
 total energy-change (2. order) :-0.6634764E-09  (-0.6922933E-13)
 number of electron      10.9999996 magnetization 
 augmentation part        7.0142813 magnetization 

 Broyden mixing:
  rms(total) = 0.75873E-08    rms(broyden)= 0.75859E-08
  rms(prec ) = 0.20772E-07
  weight for this iteration     100.00

 eigenvalues of (default mixing * dielectric matrix)
  average eigenvalue GAMMA=   1.7377
  4.6142  2.7663  2.5677  2.5307  2.5307  2.1415  0.6517  1.0258  1.0258  0.9883
  0.9883  0.9483  0.9483  0.6010

 Free energy of the ion-electron system (eV)
  ---------------------------------------------------
  alpha Z        PSCENC =        60.83200522
  Ewald energy   TEWEN  =     -1098.39284620
  -Hartree energ DENC   =      -342.25781026
  -exchange      EXHF   =         0.00000000
  -V(xc)+E(xc)   XCENC  =        44.63997391
  PAW double counting   =      1310.89003619    -1418.68373566
  entropy T*S    EENTRO =        -0.00034958
  eigenvalues    EBANDS =        48.28216572
  atomic energy  EATOM  =      1390.97705399
  Solvation  Ediel_sol  =         0.00000000
  ---------------------------------------------------
  free energy    TOTEN  =        -3.71350667 eV

  energy without entropy =       -3.71315709  energy(sigma->0) =       -3.71333188


--------------------------------------------------------------------------------------------------------




--------------------------------------- Iteration      1(  20)  ---------------------------------------


    POTLOK:  cpu time      0.0123: real time      0.0131
    SETDIJ:  cpu time      0.0028: real time      0.0028
     EDDAV:  cpu time      0.1714: real time      0.1732
       DOS:  cpu time      0.0005: real time      0.0005
    --------------------------------------------
      LOOP:  cpu time      0.1869: real time      0.1895

 eigenvalue-minimisations  :   632
 total energy-change (2. order) :-0.8685674E-10  (-0.4128233E-13)
 number of electron      10.9999996 magnetization 
 augmentation part        7.0142813 magnetization 

 Free energy of the ion-electron system (eV)
  ---------------------------------------------------
  alpha Z        PSCENC =        60.83200522
  Ewald energy   TEWEN  =     -1098.39284620
  -Hartree energ DENC   =      -342.25781042
  -exchange      EXHF   =         0.00000000
  -V(xc)+E(xc)   XCENC  =        44.63997391
  PAW double counting   =      1310.89003633    -1418.68373558
  entropy T*S    EENTRO =        -0.00034958
  eigenvalues    EBANDS =        48.28216565
  atomic energy  EATOM  =      1390.97705399
  Solvation  Ediel_sol  =         0.00000000
  ---------------------------------------------------
  free energy    TOTEN  =        -3.71350667 eV

  energy without entropy =       -3.71315709  energy(sigma->0) =       -3.71333188


--------------------------------------------------------------------------------------------------------




 average (electrostatic) potential at core
  the test charge radii are     0.9430
  (the norm of the test charge is              1.0000)
       1 -63.8727
 
 
 
 E-fermi :   7.2565     XC(G=0): -12.6227     alpha+bet :-13.1877

 Fermi energy:         7.2564977876

 k-point     1 :       0.0000    0.0000    0.0000
  band No.  band energies     occupation 
      1      -1.8492      2.00000
      2       4.3965      2.00000
      3       4.3965      2.00000
      4       4.3965      2.00000
      5       5.2019      2.00000
      6       5.2019      2.00000
      7      29.8191      0.00000
      8      32.3260      0.00000
      9      32.3260      0.00000
     10      32.3260      0.00000
     11      34.8048      0.00000
     12      34.8048      0.00000

 k-point     2 :       0.1000    0.0000    0.0000
  band No.  band energies     occupation 
      1      -1.4914      2.00000
      2       4.3253      2.00000
      3       4.4591      2.00000
      4       4.4591      2.00000
      5       5.1798      2.00000
      6       5.1798      2.00000
      7      27.2488      0.00000
      8      30.5196      0.00000
      9      31.4311      0.00000
     10      31.4311      0.00000
     11      36.1907      0.00000
     12      36.1907      0.00000

 k-point     3 :       0.2000    0.0000    0.0000
  band No.  band energies     occupation 
      1      -0.4627      2.00000
      2       4.1822      2.00000
      3       4.5532      2.00000
      4       4.5532      2.00000
      5       5.2004      2.00000
      6       5.2004      2.00000
      7      22.1322      0.00000
      8      30.0301      0.00000
      9      30.3298      0.00000
     10      30.3298      0.00000
     11      36.6397      0.00000
     12      36.7402      0.00000

 k-point     4 :       0.3000    0.0000    0.0000
  band No.  band energies     occupation 
      1       1.0110      2.00000
      2       4.2312      2.00000
      3       4.5117      2.00000
      4       4.5117      2.00000
      5       5.4021      2.00000
      6       5.4021      2.00000
      7      17.3297      0.00000
      8      29.2793      0.00000
      9      29.6037      0.00000
     10      29.6037      0.00000
     11      34.4473      0.00000
     12      34.4473      0.00000

 k-point     5 :       0.4000    0.0000    0.0000
  band No.  band energies     occupation 
      1       2.1346      2.00000
      2       4.4120      2.00000
      3       4.4120      2.00000
      4       5.1719      2.00000
      5       5.6476      2.00000
      6       5.6476      2.00000
      7      13.2283      0.00000
      8      28.5884      0.00000
      9      29.2506      0.00000
     10      29.2506      0.00000
     11      32.7933      0.00000
     12      32.7934      0.00000

 k-point     6 :       0.5000    0.0000    0.0000
  band No.  band energies     occupation 
      1       2.3918      2.00000
      2       4.3676      2.00000
      3       4.3676      2.00000
      4       5.7518      2.00000
      5       5.7518      2.00000
      6       6.4168      2.00000
      7      11.0366      0.00000
      8      28.3196      0.00000
      9      29.1632      0.00000
     10      29.1633      0.00000
     11      32.1912      0.00000
     12      32.1912      0.00000

 k-point     7 :       0.1000    0.1000    0.0000
  band No.  band energies     occupation 
      1      -1.3729      2.00000
      2       4.2605      2.00000
      3       4.5077      2.00000
      4       4.5077      2.00000
      5       5.0805      2.00000
      6       5.2519      2.00000
      7      28.5272      0.00000
      8      29.3110      0.00000
      9      29.3111      0.00000
     10      30.7467      0.00000
     11      36.6679      0.00000
     12      37.1115      0.00000

 k-point     8 :       0.2000    0.1000    0.0000
  band No.  band energies     occupation 
      1      -0.5684      2.00000
      2       4.1054      2.00000
      3       4.6091      2.00000
      4       4.6285      2.00000
      5       5.0200      2.00000
      6       5.3115      2.00000
      7      24.0706      0.00000
      8      27.7573      0.00000
      9      28.6047      0.00000
     10      31.8355      0.00000
     11      33.7332      0.00000
     12      37.1309      0.00000

 k-point     9 :       0.3000    0.1000    0.0000
  band No.  band energies     occupation 
      1       0.7784      2.00000
      2       4.0063      2.00000
      3       4.5097      2.00000
      4       4.6484      2.00000
      5       5.3039      2.00000
      6       5.4773      2.00000
      7      19.1183      0.00000
      8      26.8266      0.00000
      9      27.9121      0.00000
     10      30.1380      0.00000
     11      35.0805      0.00000
     12      36.8305      0.00000

 k-point    10 :       0.4000    0.1000    0.0000
  band No.  band energies     occupation 
      1       2.0965      2.00000
      2       4.2717      2.00000
      3       4.3970      2.00000
      4       4.5616      2.00000
      5       5.6861      2.00000
      6       5.9664      2.00000
      7      14.7146      0.00000
      8      26.5803      0.00000
      9      26.9780      0.00000
     10      28.4429      0.00000
     11      35.2960      0.00000
     12      36.1068      0.00000

 k-point    11 :       0.5000    0.1000    0.0000
  band No.  band energies     occupation 
      1       2.5584      2.00000
      2       4.2476      2.00000
      3       4.4854      2.00000
      4       4.9509      2.00000
      5       5.7588      2.00000
      6       7.2681      0.58337
      7      11.4669      0.00000
      8      25.6555      0.00000
      9      27.0964      0.00000
     10      28.1597      0.00000
     11      34.6509      0.00000
     12      35.0672      0.00000

 k-point    12 :      -0.4000    0.1000    0.0000
  band No.  band energies     occupation 
      1       2.4924      2.00000
      2       4.2849      2.00000
      3       4.4862      2.00000
      4       4.8594      2.00000
      5       5.6203      2.00000
      6       6.8617      2.00000
      7      12.3225      0.00000
      8      24.7696      0.00000
      9      28.4195      0.00000
     10      28.6985      0.00000
     11      33.7814      0.00000
     12      35.0375      0.00000

 k-point    13 :      -0.3000    0.1000    0.0000
  band No.  band energies     occupation 
      1       1.7363      2.00000
      2       4.1929      2.00000
      3       4.4127      2.00000
      4       4.5714      2.00000
      5       5.3257      2.00000
      6       5.9284      2.00000
      7      16.1109      0.00000
      8      24.5404      0.00000
      9      29.9116      0.00000
     10      30.5138      0.00000
     11      33.4790      0.00000
     12      34.8473      0.00000

 k-point    14 :      -0.2000    0.1000    0.0000
  band No.  band energies     occupation 
      1       0.2905      2.00000
      2       4.0584      2.00000
      3       4.5418      2.00000
      4       4.6620      2.00000
      5       5.0484      2.00000
      6       5.4996      2.00000
      7      20.7287      0.00000
      8      24.9489      0.00000
      9      31.6085      0.00000
     10      33.1790      0.00000
     11      33.7895      0.00000
     12      34.1352      0.00000

 k-point    15 :      -0.1000    0.1000    0.0000
  band No.  band energies     occupation 
      1      -0.9087      2.00000
      2       4.2027      2.00000
      3       4.5473      2.00000
      4       4.5562      2.00000
      5       5.0607      2.00000
      6       5.2723      2.00000
      7      25.4894      0.00000
      8      26.2701      0.00000
      9      31.9853      0.00000
     10      33.6558      0.00000
     11      34.6311      0.00000
     12      35.3045      0.00000

 k-point    16 :       0.2000    0.2000    0.0000
  band No.  band energies     occupation 
      1      -0.0183      2.00000
      2       3.9111      2.00000
      3       4.8174      2.00000
      4       4.8235      2.00000
      5       4.8235      2.00000
      6       5.3840      2.00000
      7      25.8044      0.00000
      8      25.8044      0.00000
      9      26.8189      0.00000
     10      27.8908      0.00000
     11      30.7885      0.00000
     12      41.7960      0.00000

 k-point    17 :       0.3000    0.2000    0.0000
  band No.  band energies     occupation 
      1       1.0755      2.00000
      2       3.7295      2.00000
      3       4.5741      2.00000
      4       4.9477      2.00000
      5       5.2861      2.00000
      6       5.5193      2.00000
      7      21.3962      0.00000
      8      24.5448      0.00000
      9      25.7511      0.00000
     10      27.4182      0.00000
     11      31.1496      0.00000
     12      41.2861      0.00000

 k-point    18 :       0.4000    0.2000    0.0000
  band No.  band energies     occupation 
      1       2.3105      2.00000
      2       3.6959      2.00000
      3       4.3617      2.00000
      4       4.9019      2.00000
      5       5.7162      2.00000
      6       6.2364      2.00000
      7      16.8121      0.00000
      8      23.4914      0.00000
      9      24.0666      0.00000
     10      27.1297      0.00000
     11      34.6925      0.00000
     12      40.1554      0.00000

 k-point    19 :       0.5000    0.2000    0.0000
  band No.  band energies     occupation 
      1       2.9314      2.00000
      2       3.8422      2.00000
      3       4.3785      2.00000
      4       4.8089      2.00000
      5       5.7780      2.00000
      6       8.0509      0.00000
      7      12.8958      0.00000
      8      21.6372      0.00000
      9      24.4453      0.00000
     10      27.1752      0.00000
     11      38.4059      0.00000
     12      38.5067      0.00000

 k-point    20 :      -0.4000    0.2000    0.0000
  band No.  band energies     occupation 
      1       3.0326      2.00000
      2       3.9404      2.00000
      3       4.4069      2.00000
      4       4.7570      2.00000
      5       5.6215      2.00000
      6       8.8157      0.00000
      7      11.9190      0.00000
      8      20.4019      0.00000
      9      25.6886      0.00000
     10      27.7013      0.00000
     11      37.4252      0.00000
     12      38.0825      0.00000

 k-point    21 :      -0.3000    0.2000    0.0000
  band No.  band energies     occupation 
      1       2.7082      2.00000
      2       4.0331      2.00000
      3       4.1414      2.00000
      4       4.7834      2.00000
      5       5.3022      2.00000
      6       7.0368      2.00000
      7      15.4468      0.00000
      8      19.8681      0.00000
      9      27.7101      0.00000
     10      28.8118      0.00000
     11      36.9084      0.00000
     12      36.9366      0.00000

 k-point    22 :      -0.2000    0.2000    0.0000
  band No.  band energies     occupation 
      1       1.5405      2.00000
      2       3.9157      2.00000
      3       4.3829      2.00000
      4       4.8732      2.00000
      5       4.9589      2.00000
      6       6.0483      2.00000
      7      19.5630      0.00000
      8      20.3460      0.00000
      9      30.3590      0.00000
[...]
      7      14.6285      0.00000
      8      16.4944      0.00000
      9      25.2035      0.00000
     10      27.5874      0.00000
     11      39.8648      0.00000
     12      39.9620      0.00000

 k-point    28 :       0.4000    0.4000    0.0000
  band No.  band energies     occupation 
      1       2.5473      2.00000
      2       3.1620      2.00000
      3       5.6818      2.00000
      4       5.7011      2.00000
      5       5.7011      2.00000
      6       6.8154      2.00000
      7      17.3973      0.00000
      8      20.9989      0.00000
      9      20.9989      0.00000
     10      24.9653      0.00000
     11      27.5240      0.00000
     12      48.4951      0.00000

 k-point    29 :       0.5000    0.4000    0.0000
  band No.  band energies     occupation 
      1       2.7038      2.00000
      2       3.1337      2.00000
      3       5.4716      2.00000
      4       5.6130      2.00000
      5       5.8385      2.00000
      6       8.7311      0.00000
      7      15.4357      0.00000
      8      18.2414      0.00000
      9      20.8205      0.00000
     10      25.7031      0.00000
     11      29.1985      0.00000
     12      46.9087      0.00000

 k-point    30 :      -0.4000    0.4000    0.0000
  band No.  band energies     occupation 
      1       2.9862      2.00000
      2       3.2783      2.00000
      3       4.9328      2.00000
      4       5.4519      2.00000
      5       5.7621      2.00000
      6      10.8156      0.00000
      7      14.4977      0.00000
      8      14.9644      0.00000
      9      21.6400      0.00000
     10      26.1751      0.00000
     11      33.4439      0.00000
     12      44.6257      0.00000

 k-point    31 :       0.5000    0.5000    0.0000
  band No.  band energies     occupation 
      1       2.5946      2.00000
      2       3.0390      2.00000
      3       5.7340      2.00000
      4       5.8851      2.00000
      5       5.8851      2.00000
      6       8.8758      0.00000
      7      14.3554      0.00000
      8      20.3067      0.00000
      9      20.3067      0.00000
     10      24.7554      0.00000
     11      27.3278      0.00000
     12      49.0921      0.00000

 k-point    32 :       0.3000    0.2000    0.1000
  band No.  band energies     occupation 
      1       0.4004      2.00000
      2       3.9287      2.00000
      3       4.5488      2.00000
      4       4.8311      2.00000
      5       4.9977      2.00000
      6       5.5142      2.00000
      7      22.5907      0.00000
      8      23.2027      0.00000
      9      29.2300      0.00000
     10      30.6692      0.00000
     11      32.8845      0.00000
     12      37.5169      0.00000

 k-point    33 :       0.4000    0.2000    0.1000
  band No.  band energies     occupation 
      1       1.7561      2.00000
      2       3.8527      2.00000
      3       4.3365      2.00000
      4       4.8375      2.00000
      5       5.2785      2.00000
      6       6.0205      2.00000
      7      18.0669      0.00000
      8      22.3236      0.00000
      9      26.7406      0.00000
     10      30.7788      0.00000
     11      34.5336      0.00000
     12      36.6835      0.00000

 k-point    34 :       0.5000    0.2000    0.1000
  band No.  band energies     occupation 
      1       2.7177      2.00000
      2       4.0399      2.00000
      3       4.2643      2.00000
      4       4.7380      2.00000
      5       5.6012      2.00000
      6       7.1624      1.99998
      7      13.8815      0.00000
      8      22.3758      0.00000
      9      24.6753      0.00000
     10      30.2534      0.00000
     11      34.3405      0.00000
     12      39.0931      0.00000

 k-point    35 :      -0.4000    0.2000    0.1000
  band No.  band energies     occupation 
      1       2.9081      2.00000
      2       4.0041      2.00000
      3       4.5312      2.00000
      4       4.6790      2.00000
      5       5.7064      2.00000
      6       8.6724      0.00000
      7      11.3276      0.00000
      8      22.9541      0.00000
      9      23.4075      0.00000
     10      30.0281      0.00000
     11      34.0853      0.00000
     12      39.4060      0.00000

 k-point    36 :       0.4000    0.3000    0.1000
  band No.  band energies     occupation 
      1       2.0850      2.00000
      2       3.5694      2.00000
      3       4.4471      2.00000
      4       5.2703      2.00000
      5       5.3289      2.00000
      6       6.0472      2.00000
      7      20.2534      0.00000
      8      20.8226      0.00000
      9      23.1958      0.00000
     10      28.9504      0.00000
     11      31.0834      0.00000
     12      40.1291      0.00000

 k-point    37 :       0.5000    0.3000    0.1000
  band No.  band energies     occupation 
      1       2.9263      2.00000
      2       3.5692      2.00000
      3       4.2723      2.00000
      4       5.1697      2.00000
      5       5.6369      2.00000
      6       7.4599      0.00000
      7      16.1414      0.00000
      8      20.3942      0.00000
      9      20.9406      0.00000
     10      29.5122      0.00000
     11      34.1317      0.00000
     12      38.5254      0.00000

 k-point    38 :      -0.4000    0.3000    0.1000
  band No.  band energies     occupation 
      1       3.2896      2.00000
      2       3.6340      2.00000
      3       4.2361      2.00000
      4       5.0281      2.00000
      5       5.7170      2.00000
      6       9.8264      0.00000
      7      12.4781      0.00000
      8      19.1926      0.00000
      9      21.0543      0.00000
     10      29.8595      0.00000
     11      36.3612      0.00000
     12      39.5198      0.00000

 k-point    39 :      -0.3000    0.3000    0.1000
  band No.  band energies     occupation 
      1       3.3543      2.00000
      2       3.7353      2.00000
      3       4.0702      2.00000
      4       4.9967      2.00000
      5       5.5706      2.00000
      6       9.0925      0.00000
      7      13.5559      0.00000
      8      18.1807      0.00000
      9      22.3725      0.00000
     10      30.7235      0.00000
     11      35.5781      0.00000
     12      40.7539      0.00000

 k-point    40 :      -0.2000    0.3000    0.1000
  band No.  band energies     occupation 
      1       2.8501      2.00000
      2       3.7889      2.00000
      3       4.0511      2.00000
      4       5.0519      2.00000
      5       5.2920      2.00000
      6       7.1289      2.00000
      7      17.1606      0.00000
      8      18.2605      0.00000
      9      24.3068      0.00000
     10      32.1197      0.00000
     11      34.0122      0.00000
     12      37.7482      0.00000

 k-point    41 :       0.5000    0.4000    0.1000
  band No.  band energies     occupation 
      1       2.7894      2.00000
      2       3.2816      2.00000
      3       4.9165      2.00000
      4       5.5693      2.00000
      5       5.6993      2.00000
      6       7.8338      0.00000
      7      17.7287      0.00000
      8      18.6487      0.00000
      9      19.2935      0.00000
     10      27.9278      0.00000
     11      30.2010      0.00000
     12      42.8838      0.00000

 k-point    42 :      -0.4000    0.4000    0.1000
  band No.  band energies     occupation 
      1       3.0758      2.00000
      2       3.3793      2.00000
      3       4.6378      2.00000
      4       5.3703      2.00000
      5       5.8067      2.00000
      6      10.2560      0.00000
      7      15.0553      0.00000
      8      16.0360      0.00000
      9      19.4259      0.00000
     10      28.9104      0.00000
     11      33.7320      0.00000
     12      40.9808      0.00000

 k-point    43 :      -0.3000    0.4000    0.1000
  band No.  band energies     occupation 
      1       3.3917      2.00000
      2       3.5395      2.00000
      3       4.2436      2.00000
      4       5.1809      2.00000
      5       5.7021      2.00000
      6      11.7295      0.00000
      7      12.8498      0.00000
      8      15.5323      0.00000
      9      20.5832      0.00000
     10      29.6844      0.00000
     11      38.5660      0.00000
     12      38.7409      0.00000

 k-point    44 :      -0.4000    0.5000    0.1000
  band No.  band energies     occupation 
      1       2.8043      2.00000
      2       3.1729      2.00000
      3       5.2404      2.00000
      4       5.5758      2.00000
      5       5.8854      2.00000
      6       9.9506      0.00000
      7      14.5401      0.00000
      8      18.0617      0.00000
      9      18.7249      0.00000
     10      27.5964      0.00000
     11      29.9483      0.00000
     12      44.8368      0.00000

 k-point    45 :      -0.4000    0.4000    0.2000
  band No.  band energies     occupation 
      1       3.3107      2.00000
      2       3.6456      2.00000
      3       4.0631      2.00000
      4       5.2393      2.00000
      5       5.6960      2.00000
      6       9.5317      0.00000
      7      15.5371      0.00000
      8      17.0033      0.00000
      9      18.8142      0.00000
     10      32.8973      0.00000
     11      34.0485      0.00000
     12      37.6111      0.00000

 k-point    46 :      -0.3000    0.4000    0.2000
  band No.  band energies     occupation 
      1       3.4039      2.00000
      2       3.7526      2.00000
      3       3.9751      2.00000
      4       5.1454      2.00000
      5       5.7969      2.00000
      6      12.1190      0.00000
      7      12.7078      0.00000
      8      17.2470      0.00000
      9      17.4474      0.00000
     10      33.4513      0.00000
     11      35.1103      0.00000
     12      38.7006      0.00000

 k-point    47 :      -0.3000    0.5000    0.2000
  band No.  band energies     occupation 
      1       3.2273      2.00000
      2       3.5857      2.00000
      3       4.2936      2.00000
      4       5.2353      2.00000
      5       5.8858      2.00000
      6      12.1710      0.00000
      7      14.9425      0.00000
      8      15.1795      0.00000
      9      16.6101      0.00000
     10      32.5213      0.00000
     11      34.8788      0.00000
     12      38.3476      0.00000


--------------------------------------------------------------------------------------------------------


 soft charge-density along one line, spin component           1
         0         1         2         3         4         5         6         7         8         9
 total charge-density along one line
 
 pseudopotential strength for first ion, spin component:           1
 -3.035  -0.000  -0.000  -0.000  -0.000  -4.618   0.000   0.000
 -0.000  -3.035   0.000  -0.000  -0.000   0.000  -4.618  -0.000
 -0.000   0.000  -3.018   0.000   0.000   0.000  -0.000  -4.630
 -0.000  -0.000   0.000  -3.035   0.000   0.000   0.000  -0.000
 -0.000  -0.000   0.000   0.000  -3.018   0.000   0.000  -0.000
 -4.618   0.000   0.000   0.000   0.000  10.216   0.000  -0.000
  0.000  -4.618  -0.000   0.000   0.000   0.000  10.216   0.000
  0.000  -0.000  -4.630  -0.000  -0.000  -0.000   0.000  10.225
  0.000   0.000  -0.000  -4.618  -0.000   0.000   0.000   0.000
  0.000   0.000  -0.000  -0.000  -4.630  -0.000  -0.000   0.000
 -0.000  -0.000   0.000  -0.000   0.000  -0.000  -0.000   0.000
 -0.000  -0.000   0.000  -0.000   0.000  -0.000  -0.000   0.000
 -0.000   0.000   0.000  -0.000   0.000  -0.000  -0.000  -0.000
 -0.000  -0.000   0.000  -0.000  -0.000  -0.000   0.000   0.000
 -0.000  -0.000   0.000   0.000  -0.000  -0.000  -0.000   0.000
 -0.000   0.000   0.000   0.000   0.000  -0.000  -0.000   0.000
  0.000  -0.000   0.000  -0.000   0.000  -0.000  -0.000   0.000
 -0.000   0.000   0.000   0.000  -0.000  -0.000  -0.000   0.000
 total augmentation occupancy for first ion, spin component:           1
  1.907  -0.000   0.000   0.000  -0.000  -0.016  -0.000  -0.000   0.000  -0.000   0.000  -0.000   0.000   0.000   0.000   0.000
 -0.000   1.907   0.000   0.000  -0.000  -0.000  -0.016   0.000  -0.000   0.000  -0.000   0.000   0.000   0.000   0.000   0.000
  0.000   0.000   1.926   0.000   0.000   0.000   0.000  -0.034  -0.000   0.000  -0.000   0.000   0.000   0.000   0.000   0.000
  0.000   0.000   0.000   1.907   0.000   0.000   0.000  -0.000  -0.016   0.000   0.000  -0.000   0.000   0.000   0.000   0.000
  0.000   0.000   0.000  -0.000   1.926  -0.000  -0.000   0.000   0.000  -0.034   0.000  -0.000   0.000   0.000   0.000   0.000
 -0.016   0.000   0.000   0.000   0.000   0.017   0.000  -0.000  -0.000   0.000   0.000   0.000   0.000   0.000   0.000   0.000
 -0.000  -0.016   0.000   0.000   0.000   0.000   0.017   0.000  -0.000  -0.000   0.000   0.000   0.000   0.000   0.000   0.000
  0.000  -0.000  -0.034   0.000   0.000  -0.000  -0.000   0.016  -0.000   0.000   0.000   0.000   0.000   0.000   0.000   0.000
 -0.000  -0.000  -0.000  -0.016  -0.000  -0.000  -0.000  -0.000   0.017   0.000   0.000  -0.000   0.000   0.000   0.000   0.000
  0.000   0.000   0.000   0.000  -0.034   0.000   0.000   0.000   0.000   0.016   0.000   0.000   0.000   0.000   0.000   0.000
  0.000  -0.000  -0.000   0.000   0.000   0.000   0.000   0.000   0.000   0.000   1.770  -0.170   0.000   0.000   0.000   0.000
 -0.000   0.000   0.000  -0.000   0.000   0.000   0.000   0.000  -0.000   0.000  -0.170   0.022   0.000   0.000   0.000   0.000
  0.000   0.000   0.000   0.000   0.000   0.000   0.000   0.000   0.000   0.000   0.000   0.000   0.231   0.000   0.000  -0.015
  0.000   0.000   0.000   0.000   0.000   0.000   0.000   0.000   0.000   0.000   0.000   0.000   0.000   0.231   0.000  -0.000
  0.000   0.000   0.000   0.000   0.000   0.000   0.000   0.000   0.000   0.000   0.000   0.000   0.000   0.000   0.231  -0.000
  0.000   0.000   0.000   0.000   0.000   0.000   0.000   0.000   0.000   0.000   0.000   0.000  -0.015  -0.000  -0.000   0.001
  0.000   0.000   0.000   0.000   0.000   0.000   0.000   0.000   0.000   0.000   0.000   0.000   0.000  -0.015   0.000   0.000
  0.000   0.000   0.000   0.000   0.000   0.000   0.000   0.000   0.000   0.000   0.000   0.000  -0.000   0.000  -0.015  -0.000


------------------------ aborting loop because EDIFF is reached ----------------------------------------


    CHARGE:  cpu time      0.0160: real time      0.0161
    FORLOC:  cpu time      0.0004: real time      0.0004
    FORNL :  cpu time      0.0133: real time      0.0135
    STRESS:  cpu time      0.0829: real time      0.0835
    FORCOR:  cpu time      0.0104: real time      0.0104
    FORHAR:  cpu time      0.0024: real time      0.0024
    MIXING:  cpu time      0.0011: real time      0.0012
    OFIELD:  cpu time      0.0000: real time      0.0000

  FORCE on cell =-STRESS in cart. coord.  units (eV):
  Direction    XX          YY          ZZ          XY          YZ          ZX
  --------------------------------------------------------------------------------------
  Alpha Z    60.81442    60.81442    60.81442
  Ewald    -366.09567  -366.09567  -366.09567     0.00000     0.00000    -0.00000
  Hartree   114.10593   114.10593   114.10593     0.00000     0.00000     0.00000
  E(xc)     -64.30855   -64.30855   -64.30855    -0.00000    -0.00000    -0.00000
  Local      92.21304    92.21304    92.21304     0.00005     0.00005     0.00005
  n-local   -21.08627   -20.10707   -22.58798     1.49105    -1.65630     1.07992
  augment    94.82702    94.82702    94.82702    -0.00003    -0.00003    -0.00003
  Kinetic    88.68620    88.27906    92.14750    -1.95583     2.68346    -2.17716
  Fock        0.00000     0.00000     0.00000     0.00000     0.00000     0.00000
  -------------------------------------------------------------------------------------
  Total       0.00001     0.00001     0.00001     0.00000    -0.00000     0.00000
  in kB       0.00082     0.00082     0.00082     0.00000    -0.00000     0.00000
  external pressure =        0.00 kB  Pullay stress =        0.00 kB


 VOLUME and BASIS-vectors are now :
 -----------------------------------------------------------------------------
  energy-cutoff  :      520.00
  volume of cell :       12.03
      direct lattice vectors                 reciprocal lattice vectors
     0.000000000  1.818410337  1.818410337    -0.274965441  0.274965441  0.274965441
     1.818410337 -0.000000000  1.818410337     0.274965441 -0.274965441  0.274965441
     1.818410337  1.818410337 -0.000000000     0.274965441  0.274965441 -0.274965441

  length of vectors
     2.571620560  2.571620560  2.571620560     0.476254114  0.476254114  0.476254114


 FORCES acting on ions
    electron-ion (+dipol)            ewald-force                    non-local-force                 convergence-correction
 -----------------------------------------------------------------------------------------------
   -.599E-14 -.453E-14 -.891E-14   -.176E-14 0.198E-14 -.327E-14   0.162E-26 0.162E-26 0.161E-26   -.201E-13 0.171E-13 -.114E-14
 -----------------------------------------------------------------------------------------------
   -.599E-14 -.453E-14 -.891E-14   -.176E-14 0.198E-14 -.327E-14   0.162E-26 0.162E-26 0.161E-26   -.201E-13 0.171E-13 -.114E-14
 
 
 POSITION                                       TOTAL-FORCE (eV/Angst)
 -----------------------------------------------------------------------------------
     -0.00000      0.00000      0.00000        -0.000000     -0.000000     -0.000000
 -----------------------------------------------------------------------------------
    total drift:                               -0.000000      0.000000     -0.000000


--------------------------------------------------------------------------------------------------------



  FREE ENERGIE OF THE ION-ELECTRON SYSTEM (eV)
  ---------------------------------------------------
  free  energy   TOTEN  =        -3.71350686 eV

  energy  without entropy=       -3.71315728  energy(sigma->0) =       -3.71333207
 
 d Force = 0.0000000E+00[ 0.000E+00, 0.000E+00]  d Energy =-0.2766251E-07 0.277E-07
 d Force = 0.0000000E+00[ 0.000E+00, 0.000E+00]  d Ewald  =-0.4301657E-01 0.430E-01


--------------------------------------------------------------------------------------------------------


    POTLOK:  cpu time      0.0144: real time      0.0146


--------------------------------------------------------------------------------------------------------


 stress matrix after NEB project (eV)
      0.00001     -0.00000      0.00000
      0.00000      0.00001      0.00000
      0.00000     -0.00000      0.00001
  FORCES: max atom, RMS     0.000000    0.000000
  FORCE total and by dimension    0.000000    0.000000
  Stress total and by dimension    0.000011    0.000006


--------------------------------------------------------------------------------------------------------


  
 reached required accuracy - stopping structural energy minimisation
     LOOP+:  cpu time      5.7772: real time      5.8677
    4ORBIT:  cpu time      0.0000: real time      0.0000

 total amount of memory used by VASP MPI-rank0    34776. kBytes
=======================================================================

   base      :      30000. kBytes
   nonl-proj :       2252. kBytes
   fftplans  :        595. kBytes
   grid      :       1120. kBytes
   one-center:         15. kBytes
   wavefun   :        794. kBytes
 
  
  
 General timing and accounting informations for this job:
 ========================================================
  
                  Total CPU time used (sec):       19.542
                            User time (sec):       19.311
                          System time (sec):        0.231
                         Elapsed time (sec):       20.708
  
                   Maximum memory used (kb):      183012.
                   Average memory used (kb):          N/A
  
                          Minor page faults:        22482
                          Major page faults:          918
                 Voluntary context switches:         3434
