-------------------Job starts at-------------------
22:45:54 Feb-10-2025
---------------------------------------------------

Lmod is automatically replacing "gcc/12.3" with "intel/2023.2.1".


Lmod is automatically replacing "openmpi/4.1.5" with "intelmpi/2021.9.0".


Due to MODULEPATH changes, the following have been reloaded:
  1) flexiblas/3.3.1

 running    4 mpi-ranks, on    1 nodes
 distrk:  each k-point on    4 cores,    1 groups
 distr:  one band on    1 cores,    4 groups
 vasp.6.4.2 20Jul23 (build Oct 16 2024 22:17:43) complex                        
  
 POSCAR found type information on POSCAR Cu
 POSCAR found :  1 types and       1 ions
 Reading from existing POTCAR
 scaLAPACK will be used
 Reading from existing POTCAR
 LDA part: xc-table for Pade appr. of Perdew
 POSCAR found type information on POSCAR Cu
 POSCAR found :  1 types and       1 ions
 POSCAR, INCAR and KPOINTS ok, starting setup
 FFT: planning ... GRIDC
 FFT: planning ... GRID_SOFT
 FFT: planning ... GRID
 WAVECAR not read
 WARNING: random wavefunctions but no delay for mixing, default for NELMDL
 entering main loop
       N       E                     dE             d eps       ncg     rms          rms(c)
DAV:   1     0.394389137543E+02    0.39439E+02   -0.53522E+03  1276   0.151E+03
DAV:   2    -0.333423706792E+01   -0.42773E+02   -0.39059E+02  1168   0.196E+02
DAV:   3    -0.460261819822E+01   -0.12684E+01   -0.12529E+01  1348   0.384E+01
DAV:   4    -0.461193397444E+01   -0.93158E-02   -0.93150E-02  1300   0.283E+00
DAV:   5    -0.461202454300E+01   -0.90569E-04   -0.90568E-04  1356   0.284E-01    0.763E+00
DAV:   6    -0.410470467745E+01    0.50732E+00   -0.14551E+01  1336   0.720E+01    0.401E+00
DAV:   7    -0.372549196863E+01    0.37921E+00   -0.23574E+00  1336   0.288E+01    0.562E-01
DAV:   8    -0.371520991232E+01    0.10282E-01   -0.45717E-03  1312   0.106E+00    0.311E-01
DAV:   9    -0.371350699539E+01    0.17029E-02   -0.10715E-02  1400   0.178E+00    0.310E-02
DAV:  10    -0.371350785752E+01   -0.86213E-06   -0.39682E-05  1660   0.103E-01    0.100E-02
DAV:  11    -0.371350653158E+01    0.13259E-05   -0.19799E-06  1404   0.256E-02    0.248E-04
DAV:  12    -0.371350663911E+01   -0.10753E-06   -0.17267E-08  1336   0.127E-03    0.143E-04
DAV:  13    -0.371350666401E+01   -0.24898E-07   -0.30504E-09  1544   0.505E-04    0.494E-05
DAV:  14    -0.371350667342E+01   -0.94160E-08   -0.14813E-10   884   0.214E-04    0.419E-06
DAV:  15    -0.371350667189E+01    0.15323E-08   -0.53030E-12   716   0.313E-05    0.162E-06
DAV:  16    -0.371350667075E+01    0.11362E-08   -0.18614E-12   676   0.191E-05    0.504E-07
DAV:  17    -0.371350667142E+01   -0.66052E-09   -0.93454E-13   692   0.114E-05    0.418E-07
DAV:  18    -0.371350667082E+01    0.59572E-09   -0.78243E-13   660   0.551E-06    0.314E-08
DAV:  19    -0.371350667148E+01   -0.66348E-09   -0.69229E-13   628   0.251E-06    0.759E-08
DAV:  20    -0.371350667157E+01   -0.86857E-10   -0.41282E-13   632   0.156E-06
   1 F= -.37135067E+01 E0= -.37133319E+01  d E =-.371351E+01
 curvature:   0.00 expect dE= 0.000E+00 dE for cont linesearch  0.000E+00
 trial: gam= 0.00000 g(F)=  0.117E-62 g(S)=  0.132E-05 ort = 0.000E+00 (trialstep = 0.100E+01)
 search vector abs. value=  0.132E-05
 bond charge predicted
       N       E                     dE             d eps       ncg     rms          rms(c)
DAV:   1    -0.371355313955E+01   -0.46468E-04   -0.73884E-04  1340   0.577E-01    0.562E-02
DAV:   2    -0.371352281693E+01    0.30323E-04   -0.63354E-04  1316   0.457E-01    0.234E-02
DAV:   3    -0.371350757637E+01    0.15241E-04   -0.10302E-04  1304   0.190E-01    0.795E-03
DAV:   4    -0.371350653554E+01    0.10408E-05   -0.16449E-06  1452   0.125E-02    0.329E-04
DAV:   5    -0.371350657342E+01   -0.37879E-07   -0.96911E-09  1232   0.106E-03    0.266E-04
DAV:   6    -0.371350662247E+01   -0.49049E-07   -0.26942E-09  1424   0.797E-04    0.183E-05
DAV:   7    -0.371350661989E+01    0.25732E-08   -0.11825E-11   700   0.488E-05    0.264E-06
DAV:   8    -0.371350661816E+01    0.17367E-08   -0.24518E-12   612   0.191E-05    0.143E-06
DAV:   9    -0.371350661939E+01   -0.12287E-08   -0.11144E-12   604   0.152E-05    0.141E-07
DAV:  10    -0.371350661880E+01    0.58799E-09   -0.56060E-13   592   0.423E-06    0.237E-07
DAV:  11    -0.371350661794E+01    0.86129E-09   -0.39850E-14   580   0.264E-06    0.539E-08
DAV:  12    -0.371350661847E+01   -0.53547E-09   -0.22270E-13   580   0.102E-06    0.694E-09
DAV:  13    -0.371350661928E+01   -0.80286E-09   -0.44695E-13   580   0.492E-07    0.164E-08
DAV:  14    -0.371350661874E+01    0.53728E-09   -0.17505E-13   580   0.229E-07    0.270E-09
DAV:  15    -0.371350661870E+01    0.35243E-10   -0.18962E-13   580   0.137E-07
   2 F= -.37135066E+01 E0= -.37133318E+01  d E =0.528671E-07
 trial-energy change:    0.000000  1 .order   -0.000000   -0.000001    0.000001
 step:   0.3925(harm=  0.6617)  dis= 0.00000  next Energy=    -3.713507 (dE=-0.237E-06)
 bond charge predicted
       N       E                     dE             d eps       ncg     rms          rms(c)
DAV:   1    -0.371352369611E+01   -0.17077E-04   -0.27264E-04  1348   0.350E-01    0.342E-02
DAV:   2    -0.371351318242E+01    0.10514E-04   -0.23448E-04  1320   0.278E-01    0.143E-02
DAV:   3    -0.371350749401E+01    0.56884E-05   -0.38111E-05  1312   0.116E-01    0.482E-03
DAV:   4    -0.371350693748E+01    0.55653E-06   -0.59643E-07  1452   0.749E-03    0.188E-04
DAV:   5    -0.371350691653E+01    0.20959E-07   -0.34113E-09  1188   0.612E-04    0.161E-04
DAV:   6    -0.371350688446E+01    0.32070E-07   -0.94484E-10  1024   0.468E-04    0.998E-06
DAV:   7    -0.371350688703E+01   -0.25709E-08   -0.12594E-11   632   0.450E-05    0.176E-06
DAV:   8    -0.371350688838E+01   -0.13567E-08   -0.20321E-12   588   0.210E-05    0.151E-06
DAV:   9    -0.371350688732E+01    0.10605E-08   -0.74341E-13   568   0.130E-05    0.180E-07
DAV:  10    -0.371350688781E+01   -0.49226E-09   -0.21375E-13   576   0.425E-06    0.225E-07
DAV:  11    -0.371350688828E+01   -0.46157E-09   -0.13304E-13   568   0.239E-06    0.106E-07
DAV:  12    -0.371350688757E+01    0.70759E-09    0.38387E-14   576   0.998E-07    0.143E-07
DAV:  13    -0.371350688745E+01    0.12028E-09   -0.13023E-13   568   0.830E-07    0.602E-08
DAV:  14    -0.371350688750E+01   -0.54342E-10   -0.13789E-13   576   0.291E-07
   3 F= -.37135069E+01 E0= -.37133321E+01  d E =-.215932E-06
 curvature:  -0.12 expect dE=-0.263E-07 dE for cont linesearch -0.263E-07
 ZBRENT: interpolating
 opt :   0.6611  next Energy=    -3.713507 (dE=-0.288E-06)
 bond charge predicted
       N       E                     dE             d eps       ncg     rms          rms(c)
DAV:   1    -0.371351029320E+01   -0.34058E-05   -0.53323E-05  1348   0.155E-01    0.151E-02
DAV:   2    -0.371350797175E+01    0.23215E-05   -0.45784E-05  1320   0.123E-01    0.630E-03
DAV:   3    -0.371350687730E+01    0.10945E-05   -0.74427E-06  1308   0.511E-02    0.213E-03
DAV:   4    -0.371350683756E+01    0.39731E-07   -0.11776E-07  1444   0.334E-03    0.860E-05
DAV:   5    -0.371350684777E+01   -0.10205E-07   -0.69085E-10  1192   0.278E-04    0.714E-05
DAV:   6    -0.371350686034E+01   -0.12573E-07   -0.19076E-10   664   0.212E-04    0.480E-06
DAV:   7    -0.371350686056E+01   -0.21419E-09   -0.32229E-12   588   0.235E-05    0.771E-07
DAV:   8    -0.371350685991E+01    0.64256E-09   -0.82752E-13   576   0.130E-05    0.893E-07
DAV:   9    -0.371350686015E+01   -0.23488E-09   -0.33917E-13   576   0.823E-06    0.998E-08
DAV:  10    -0.371350686039E+01   -0.24465E-09   -0.27712E-13   568   0.271E-06    0.139E-07
DAV:  11    -0.371350685923E+01    0.11630E-08   -0.47693E-13   576   0.118E-06    0.145E-07
DAV:  12    -0.371350686003E+01   -0.80399E-09   -0.35454E-13   568   0.113E-06    0.615E-08
DAV:  13    -0.371350685962E+01    0.41496E-09   -0.19450E-13   576   0.303E-07    0.804E-08
DAV:  14    -0.371350685944E+01    0.17894E-09   -0.30555E-13   576   0.166E-07    0.699E-08
DAV:  15    -0.371350685977E+01   -0.32446E-09   -0.55432E-13   568   0.151E-07    0.480E-08
DAV:  16    -0.371350685966E+01    0.10141E-09   -0.80584E-14   576   0.190E-07    0.166E-08
DAV:  17    -0.371350685936E+01    0.30491E-09   -0.81372E-14   568   0.670E-08    0.515E-09
DAV:  18    -0.371350685957E+01   -0.21191E-09    0.15835E-13   576   0.280E-08    0.331E-09
DAV:  19    -0.371350685924E+01    0.33560E-09   -0.19209E-13   568   0.116E-08    0.245E-09
DAV:  20    -0.371350685994E+01   -0.70781E-09   -0.13744E-13   576   0.168E-08    0.526E-10
DAV:  21    -0.371350685968E+01    0.26512E-09   -0.21424E-13   568   0.429E-09    0.700E-10
DAV:  22    -0.371350686042E+01   -0.73828E-09   -0.47069E-14   576   0.610E-09    0.485E-10
DAV:  23    -0.371350686006E+01    0.35561E-09   -0.35119E-13   568   0.306E-09    0.184E-10
DAV:  24    -0.371350686032E+01   -0.25511E-09   -0.25262E-13   576   0.151E-09    0.197E-10
DAV:  25    -0.371350686003E+01    0.28740E-09    0.30469E-14   568   0.177E-09    0.179E-10
DAV:  26    -0.371350685989E+01    0.14211E-09   -0.13671E-13   576   0.744E-10    0.156E-10
DAV:  27    -0.371350685984E+01    0.46157E-10   -0.25838E-13   568   0.325E-10
   4 F= -.37135069E+01 E0= -.37133321E+01  d E =-.188270E-06
 curvature:  -0.33 expect dE=-0.183E-11 dE for cont linesearch -0.183E-11
 trial: gam=-0.00204 g(F)=  0.282E-62 g(S)=  0.553E-11 ort = 0.270E-08 (trialstep = 0.932E+00)
 search vector abs. value=  0.100E-09
 reached required accuracy - stopping structural energy minimisation
--------------------Job ends at--------------------
22:46:17 Feb-10-2025
---------------------------------------------------
