Cu FCC                                  
           1
     0.000000    1.818235    1.818235
     1.818235    0.000000    1.818235
     1.818235    1.818235    0.000000
   Cu
     1
Direct configuration=     1
   0.00000000  0.00000000  0.00000000
Cu FCC                                  
           1
     0.000000    1.818500    1.818500
     1.818500   -0.000000    1.818500
     1.818500    1.818500   -0.000000
   Cu
     1
Direct configuration=     2
   0.00000000  0.00000000 -0.00000000
Cu FCC                                  
           1
     0.000000    1.818339    1.818339
     1.818339   -0.000000    1.818339
     1.818339    1.818339   -0.000000
   Cu
     1
Direct configuration=     3
   0.00000000  0.00000000 -0.00000000
Cu FCC                                  
           1
     0.000000    1.818410    1.818410
     1.818410   -0.000000    1.818410
     1.818410    1.818410   -0.000000
   Cu
     1
Direct configuration=     4
   0.00000000  0.00000000 -0.00000000
