   2   2   0   0
  0.2001840E+02  0.3839943E-09  0.3839943E-09  0.3839943E-09  0.5000000E-15
  1.000000000000000E-004
  CAR 
 Si FCC                                  
     16.64299199     -7.28569672  301      5.79656606      1.00000000
     -7.286  0.0000E+00  0.0000E+00
     -7.206  0.0000E+00  0.0000E+00
     -7.126  0.0000E+00  0.0000E+00
     -7.046  0.0000E+00  0.0000E+00
     -6.967  0.0000E+00  0.0000E+00
     -6.887  0.0000E+00  0.0000E+00
     -6.807  0.0000E+00  0.0000E+00
     -6.727  0.0000E+00  0.0000E+00
     -6.648  0.0000E+00  0.0000E+00
     -6.568  0.0000E+00  0.0000E+00
     -6.488  0.0000E+00  0.0000E+00
     -6.408  0.0000E+00  0.0000E+00
     -6.329  0.9546E-13  0.7614E-14
     -6.249  0.2097E-05  0.1672E-06
     -6.169  0.2271E-03  0.1828E-04
     -6.089  0.3749E-03  0.4819E-04
     -6.009  0.2830E-02  0.2739E-03
     -5.930  0.3281E-03  0.3001E-03
     -5.850  0.1880E-02  0.4500E-03
     -5.770  0.1289E-02  0.5528E-03
     -5.690  0.6639E-02  0.1082E-02
     -5.611  0.1224E-02  0.1180E-02
     -5.531  0.3386E-03  0.1207E-02
     -5.451  0.1208E-02  0.1303E-02
     -5.371  0.6557E-02  0.1826E-02
     -5.292  0.5425E-02  0.2259E-02
     -5.212  0.1368E-02  0.2368E-02
     -5.132  0.4687E-02  0.2742E-02
     -5.052  0.5480E-02  0.3179E-02
     -4.973  0.2519E-02  0.3380E-02
     -4.893  0.5756E-03  0.3426E-02
     -4.813  0.2457E-02  0.3622E-02
     -4.733  0.1336E-01  0.4687E-02
     -4.654  0.5965E-02  0.5163E-02
     -4.574  0.3295E-03  0.5189E-02
     -4.494  0.7891E-02  0.5819E-02
     -4.414  0.5190E-02  0.6233E-02
     -4.334  0.6553E-02  0.6755E-02
     -4.255  0.3080E-03  0.6780E-02
     -4.175  0.2618E-02  0.6989E-02
     -4.095  0.8665E-02  0.7680E-02
     -4.015  0.1867E-01  0.9169E-02
     -3.936  0.6374E-02  0.9677E-02
     -3.856  0.5564E-02  0.1012E-01
     -3.776  0.1314E-01  0.1117E-01
     -3.696  0.1689E-02  0.1130E-01
     -3.617  0.4657E-02  0.1168E-01
     -3.537  0.9130E-02  0.1240E-01
     -3.457  0.6167E-02  0.1290E-01
     -3.377  0.1556E-01  0.1414E-01
     -3.298  0.9454E-02  0.1489E-01
     -3.218  0.1440E-02  0.1501E-01
     -3.138  0.1112E-01  0.1589E-01
     -3.058  0.5552E-02  0.1634E-01
     -2.979  0.1796E-03  0.1635E-01
     -2.899  0.5636E-02  0.1680E-01
     -2.819  0.3376E-02  0.1707E-01
     -2.739  0.3626E-02  0.1736E-01
     -2.659  0.1691E-01  0.1871E-01
     -2.580  0.5961E-02  0.1918E-01
     -2.500  0.4772E-03  0.1922E-01
     -2.420  0.6025E-05  0.1922E-01
     -2.340  0.2435E-02  0.1941E-01
     -2.261  0.5682E-03  0.1946E-01
     -2.181  0.1093E-04  0.1946E-01
     -2.101  0.2228E-02  0.1964E-01
     -2.021  0.5699E-02  0.2009E-01
     -1.942  0.5538E-02  0.2053E-01
     -1.862  0.6410E-04  0.2054E-01
     -1.782  0.3268E-03  0.2057E-01
     -1.702  0.2665E-02  0.2078E-01
     -1.623  0.1735E-04  0.2078E-01
     -1.543  0.5053E-12  0.2078E-01
     -1.463  0.5085E-05  0.2078E-01
     -1.383  0.7184E-02  0.2135E-01
     -1.304  0.2238E-01  0.2314E-01
     -1.224  0.4349E-02  0.2349E-01
     -1.144  0.4330E-02  0.2383E-01
     -1.064  0.1441E-01  0.2498E-01
     -0.984  0.1350E-01  0.2606E-01
     -0.905  0.3501E-02  0.2634E-01
     -0.825  0.1186E-01  0.2728E-01
     -0.745  0.2034E-01  0.2890E-01
     -0.665  0.1975E-02  0.2906E-01
     -0.586  0.7895E-02  0.2969E-01
     -0.506  0.3902E-02  0.3000E-01
     -0.426  0.1156E-01  0.3093E-01
     -0.346  0.6853E-03  0.3098E-01
     -0.267  0.6888E-04  0.3099E-01
     -0.187  0.1065E-01  0.3184E-01
     -0.107  0.3443E-02  0.3211E-01
     -0.027  0.8483E-02  0.3279E-01
      0.052  0.1424E-02  0.3290E-01
      0.132  0.3428E-02  0.3317E-01
      0.212  0.4231E-02  0.3351E-01
      0.292  0.4381E-02  0.3386E-01
      0.371  0.6336E-02  0.3437E-01
      0.451  0.5688E-02  0.3482E-01
      0.531  0.5650E-05  0.3482E-01
      0.611  0.1936E-13  0.3482E-01
      0.691  0.3341E-18  0.3482E-01
      0.770  0.2154E-07  0.3482E-01
      0.850  0.3070E-02  0.3506E-01
      0.930  0.1692E-01  0.3641E-01
      1.010  0.7048E-04  0.3642E-01
      1.089  0.1815E-06  0.3642E-01
      1.169  0.1430E-02  0.3653E-01
      1.249  0.3011E-02  0.3677E-01
      1.329  0.1087E-03  0.3678E-01
      1.408  0.5694E-02  0.3724E-01
      1.488  0.1367E-01  0.3833E-01
      1.568  0.3901E-02  0.3864E-01
      1.648  0.5278E-02  0.3906E-01
      1.727  0.1332E-01  0.4012E-01
      1.807  0.2224E-01  0.4190E-01
      1.887  0.1292E-01  0.4293E-01
      1.967  0.7293E-02  0.4351E-01
      2.046  0.1705E-01  0.4487E-01
      2.126  0.9032E-03  0.4494E-01
      2.206  0.8484E-03  0.4501E-01
      2.286  0.2681E-01  0.4715E-01
      2.366  0.2562E-02  0.4735E-01
      2.445  0.1364E-01  0.4844E-01
      2.525  0.1180E-01  0.4938E-01
      2.605  0.4657E-02  0.4975E-01
      2.685  0.8855E-02  0.5046E-01
      2.764  0.2619E-01  0.5255E-01
      2.844  0.1878E-01  0.5404E-01
      2.924  0.9183E-02  0.5478E-01
      3.004  0.2021E-01  0.5639E-01
      3.083  0.1273E-01  0.5740E-01
      3.163  0.4213E-02  0.5774E-01
      3.243  0.2617E-01  0.5983E-01
      3.323  0.1393E-01  0.6094E-01
      3.402  0.9117E-03  0.6101E-01
      3.482  0.1954E-01  0.6257E-01
      3.562  0.7992E-02  0.6321E-01
      3.642  0.2196E-01  0.6496E-01
      3.722  0.2044E-01  0.6659E-01
      3.801  0.3599E-02  0.6688E-01
      3.881  0.2007E-01  0.6848E-01
      3.961  0.2088E-01  0.7014E-01
      4.041  0.7977E-02  0.7078E-01
      4.120  0.1347E-03  0.7079E-01
      4.200  0.1144E-01  0.7170E-01
      4.280  0.6460E-02  0.7222E-01
      4.360  0.2392E-01  0.7413E-01
      4.439  0.1024E-01  0.7494E-01
      4.519  0.8429E-02  0.7562E-01
      4.599  0.2021E-02  0.7578E-01
      4.679  0.1160E-01  0.7670E-01
      4.758  0.1190E-01  0.7765E-01
      4.838  0.8564E-02  0.7833E-01
      4.918  0.7331E-04  0.7834E-01
      4.998  0.3657E-04  0.7834E-01
      5.077  0.6249E-02  0.7884E-01
      5.157  0.6497E-02  0.7936E-01
      5.237  0.2555E-03  0.7938E-01
      5.317  0.1044E-08  0.7938E-01
      5.397  0.4463E-03  0.7942E-01
      5.476  0.6385E-02  0.7992E-01
      5.556  0.1907E-03  0.7994E-01
      5.636  0.6042E-03  0.7999E-01
      5.716  0.1466E-03  0.8000E-01
      5.795  0.1444E-08  0.8000E-01
      5.875  0.0000E+00  0.8000E-01
      5.955  0.0000E+00  0.8000E-01
      6.035  0.0000E+00  0.8000E-01
      6.114  0.9084E-11  0.8000E-01
      6.194  0.3953E-04  0.8000E-01
      6.274  0.1413E-02  0.8012E-01
      6.354  0.4049E-03  0.8015E-01
      6.433  0.1378E-02  0.8026E-01
      6.513  0.6575E-02  0.8078E-01
      6.593  0.7201E-03  0.8084E-01
      6.673  0.1961E-02  0.8100E-01
      6.752  0.7046E-02  0.8156E-01
      6.832  0.1422E-03  0.8157E-01
      6.912  0.5642E-02  0.8202E-01
      6.992  0.1577E-02  0.8215E-01
      7.072  0.1118E-02  0.8223E-01
      7.151  0.1379E-01  0.8333E-01
      7.231  0.1765E-01  0.8474E-01
      7.311  0.2230E-02  0.8492E-01
      7.391  0.3539E-02  0.8520E-01
      7.470  0.1961E-01  0.8677E-01
      7.550  0.1119E-01  0.8766E-01
      7.630  0.8573E-03  0.8773E-01
      7.710  0.1052E-01  0.8857E-01
      7.789  0.2524E-01  0.9058E-01
      7.869  0.2162E-01  0.9230E-01
      7.949  0.1287E-01  0.9333E-01
      8.029  0.2406E-01  0.9525E-01
      8.108  0.6964E-02  0.9581E-01
      8.188  0.2471E-02  0.9600E-01
      8.268  0.3794E-02  0.9631E-01
      8.348  0.3598E-01  0.9917E-01
      8.427  0.8908E-02  0.9989E-01
      8.507  0.7461E-02  0.1005E+00
      8.587  0.5239E-02  0.1009E+00
      8.667  0.1353E-02  0.1010E+00
      8.747  0.1321E-01  0.1021E+00
      8.826  0.9722E-02  0.1028E+00
      8.906  0.1791E-01  0.1043E+00
      8.986  0.4483E-01  0.1078E+00
      9.066  0.2801E-01  0.1101E+00
      9.145  0.9181E-02  0.1108E+00
      9.225  0.1650E-01  0.1121E+00
      9.305  0.2836E-01  0.1144E+00
      9.385  0.2137E-01  0.1161E+00
      9.464  0.1179E-01  0.1170E+00
      9.544  0.3979E-02  0.1173E+00
      9.624  0.1491E-01  0.1185E+00
      9.704  0.1395E-01  0.1196E+00
      9.783  0.1291E-01  0.1207E+00
      9.863  0.1883E-02  0.1208E+00
      9.943  0.1022E-01  0.1216E+00
     10.023  0.1462E-01  0.1228E+00
     10.102  0.1437E-02  0.1229E+00
     10.182  0.1339E-01  0.1240E+00
     10.262  0.1843E-01  0.1255E+00
     10.342  0.2059E-01  0.1271E+00
     10.422  0.1757E-01  0.1285E+00
     10.501  0.9753E-02  0.1293E+00
     10.581  0.8331E-02  0.1299E+00
     10.661  0.1715E-01  0.1313E+00
     10.741  0.3199E-01  0.1339E+00
     10.820  0.1202E-01  0.1348E+00
     10.900  0.1230E-02  0.1349E+00
     10.980  0.8268E-02  0.1356E+00
     11.060  0.1491E-01  0.1368E+00
     11.139  0.1183E-01  0.1377E+00
     11.219  0.3694E-02  0.1380E+00
     11.299  0.5781E-02  0.1385E+00
     11.379  0.4754E-02  0.1389E+00
     11.458  0.5657E-02  0.1393E+00
     11.538  0.2895E-01  0.1416E+00
     11.618  0.5902E-02  0.1421E+00
     11.698  0.1048E-01  0.1429E+00
     11.777  0.3914E-03  0.1430E+00
     11.857  0.1112E-01  0.1438E+00
     11.937  0.1291E-01  0.1449E+00
     12.017  0.1141E-01  0.1458E+00
     12.097  0.5245E-02  0.1462E+00
     12.176  0.7840E-02  0.1468E+00
     12.256  0.8816E-02  0.1475E+00
     12.336  0.2439E-01  0.1495E+00
     12.416  0.1699E-01  0.1508E+00
     12.495  0.1855E-01  0.1523E+00
     12.575  0.8279E-02  0.1530E+00
     12.655  0.6308E-02  0.1535E+00
     12.735  0.1592E-03  0.1535E+00
     12.814  0.3697E-10  0.1535E+00
     12.894  0.0000E+00  0.1535E+00
     12.974  0.1896E-12  0.1535E+00
     13.054  0.1828E-04  0.1535E+00
     13.133  0.6518E-02  0.1540E+00
     13.213  0.1488E-02  0.1541E+00
     13.293  0.6756E-03  0.1542E+00
     13.373  0.1610E-01  0.1555E+00
     13.453  0.4120E-02  0.1558E+00
     13.532  0.1685E-03  0.1558E+00
     13.612  0.4915E-02  0.1562E+00
     13.692  0.1573E-01  0.1574E+00
     13.772  0.4205E-03  0.1575E+00
     13.851  0.1501E-09  0.1575E+00
     13.931  0.2996E-05  0.1575E+00
     14.011  0.8374E-02  0.1581E+00
     14.091  0.6666E-02  0.1587E+00
     14.170  0.5269E-03  0.1587E+00
     14.250  0.3668E-02  0.1590E+00
     14.330  0.6240E-02  0.1595E+00
     14.410  0.4603E-02  0.1599E+00
     14.489  0.7126E-05  0.1599E+00
     14.569  0.3154E-13  0.1599E+00
     14.649  0.0000E+00  0.1599E+00
     14.729  0.0000E+00  0.1599E+00
     14.808  0.0000E+00  0.1599E+00
     14.888  0.0000E+00  0.1599E+00
     14.968  0.0000E+00  0.1599E+00
     15.048  0.0000E+00  0.1599E+00
     15.128  0.0000E+00  0.1599E+00
     15.207  0.0000E+00  0.1599E+00
     15.287  0.0000E+00  0.1599E+00
     15.367  0.0000E+00  0.1599E+00
     15.447  0.2211E-09  0.1599E+00
     15.526  0.1290E-03  0.1599E+00
     15.606  0.1363E-02  0.1600E+00
     15.686  0.1258E-04  0.1600E+00
     15.766  0.5727E-12  0.1600E+00
     15.845  0.0000E+00  0.1600E+00
     15.925  0.0000E+00  0.1600E+00
     16.005  0.0000E+00  0.1600E+00
     16.085  0.0000E+00  0.1600E+00
     16.164  0.0000E+00  0.1600E+00
     16.244  0.0000E+00  0.1600E+00
     16.324  0.0000E+00  0.1600E+00
     16.404  0.0000E+00  0.1600E+00
     16.483  0.0000E+00  0.1600E+00
     16.563  0.0000E+00  0.1600E+00
     16.643  0.0000E+00  0.1600E+00
