    2    2  100    1
  0.2001840E+02  0.3839943E-09  0.3839943E-09  0.3839943E-09  0.5000000E-15
  1.000000000000000E-004
  CAR 
 Si FCC                                  
      8     47      8
 
  0.0000000E+00  0.0000000E+00  0.0000000E+00  0.1000000E-02
      1         -6.198029   1.000000
      2          5.617554   1.000000
      3          5.617554   1.000000
      4          5.617554   1.000000
      5          8.174502   0.000000
      6          8.174502   0.000000
      7          8.174502   0.000000
      8          8.753024   0.000000
 
  0.1000000E+00  0.0000000E+00  0.0000000E+00  0.8000000E-02
      1         -6.069441   1.000000
      2          4.475525   1.000000
      3          5.423754   1.000000
      4          5.423754   1.000000
      5          8.140749   0.000000
      6          8.460295   0.000000
      7          8.460295   0.000000
      8          9.722813   0.000000
 
  0.2000000E+00  0.0000000E+00  0.0000000E+00  0.8000000E-02
      1         -5.689974   1.000000
      2          2.635553   1.000000
      3          5.049962   1.000000
      4          5.049962   1.000000
      5          7.770636   0.000000
      6          8.962185   0.000000
      7          8.962185   0.000000
      8         11.497304   0.000000
 
  0.3000000E+00  0.0000000E+00  0.0000000E+00  0.8000000E-02
      1         -5.086556   1.000000
      2          0.877342   1.000000
      3          4.719840   1.000000
      4          4.719840   1.000000
      5          7.407018   0.000000
      6          9.142679   0.000000
      7          9.142679   0.000000
      8         13.119085   0.000000
 
  0.4000000E+00  0.0000000E+00  0.0000000E+00  0.8000000E-02
      1         -4.356693   1.000000
      2         -0.571039   1.000000
      3          4.509968   1.000000
      4          4.509968   1.000000
      5          7.167113   0.000000
      6          9.038183   0.000000
      7          9.038183   0.000000
      8         13.423185   0.000000
 
  0.5000000E+00  0.0000000E+00  0.0000000E+00  0.4000000E-02
      1         -3.919006   1.000000
      2         -1.251574   1.000000
      3          4.439069   1.000000
      4          4.439069   1.000000
      5          7.084802   0.000000
      6          8.967024   0.000000
      7          8.967024   0.000000
      8         13.320179   0.000000
 
  0.1000000E+00  0.1000000E+00  0.0000000E+00  0.6000000E-02
      1         -6.026285   1.000000
      2          4.662079   1.000000
      3          5.056012   1.000000
      4          5.056012   1.000000
      5          7.802742   0.000000
      6          8.946965   0.000000
      7          8.946965   0.000000
      8          9.607494   0.000000
 
  0.2000000E+00  0.1000000E+00  0.0000000E+00  0.2400000E-01
      1         -5.729211   1.000000
      2          3.176060   1.000000
      3          4.629471   1.000000
      4          4.787524   1.000000
      5          7.857023   0.000000
      6          8.956453   0.000000
      7          9.590762   0.000000
      8         10.530967   0.000000
 
  0.3000000E+00  0.1000000E+00  0.0000000E+00  0.2400000E-01
      1         -5.195882   1.000000
      2          1.445180   1.000000
      3          4.315166   1.000000
      4          4.359650   1.000000
      5          7.965240   0.000000
      6          8.959606   0.000000
      7          9.877620   0.000000
      8         10.919737   0.000000
 
  0.4000000E+00  0.1000000E+00  0.0000000E+00  0.2400000E-01
      1         -4.487289   1.000000
      2         -0.099075   1.000000
      3          3.954477   1.000000
      4          4.168712   1.000000
      5          7.808488   0.000000
      6          8.947503   0.000000
      7          9.713895   0.000000
      8         11.964648   0.000000
 
  0.5000000E+00  0.1000000E+00  0.0000000E+00  0.2400000E-01
      1         -3.864271   1.000000
      2         -1.112201   1.000000
      3          3.669925   1.000000
      4          4.199406   1.000000
      5          7.715132   0.000000
      6          8.928178   0.000000
      7          9.457032   0.000000
      8         13.358028   0.000000
 
 -0.4000000E+00  0.1000000E+00  0.0000000E+00  0.2400000E-01
      1         -4.026274   1.000000
      2         -0.869934   1.000000
      3          3.545954   1.000000
      4          4.394248   1.000000
      5          7.769926   0.000000
      6          9.062400   0.000000
      7          9.304073   0.000000
      8         13.609661   0.000000
 
 -0.3000000E+00  0.1000000E+00  0.0000000E+00  0.2400000E-01
      1         -4.737105   1.000000
      2          0.385280   1.000000
      3          3.608169   1.000000
      4          4.722136   1.000000
      5          7.969331   0.000000
      6          9.227045   0.000000
      7          9.305894   0.000000
      8         12.548949   0.000000
 
 -0.2000000E+00  0.1000000E+00  0.0000000E+00  0.2400000E-01
      1         -5.399358   1.000000
      2          2.004902   1.000000
      3          3.883473   1.000000
      4          5.120675   1.000000
      5          8.276839   0.000000
      6          8.974254   0.000000
      7          9.301358   0.000000
      8         11.488723   0.000000
 
 -0.1000000E+00  0.1000000E+00  0.0000000E+00  0.1200000E-01
      1         -5.856736   1.000000
      2          3.590742   1.000000
      3          4.486370   1.000000
      4          5.442185   1.000000
      5          8.528343   0.000000
      6          8.529624   0.000000
      7          8.707368   0.000000
      8         10.668155   0.000000
 
  0.2000000E+00  0.2000000E+00  0.0000000E+00  0.6000000E-02
      1         -5.514897   1.000000
      2          2.983048   1.000000
      3          4.163082   1.000000
      4          4.163082   1.000000
      5          7.093840   0.000000
      6          9.471026   0.000000
      7         10.459016   0.000000
      8         10.459016   0.000000
 
  0.3000000E+00  0.2000000E+00  0.0000000E+00  0.2400000E-01
      1         -5.057683   1.000000
      2          1.760543   1.000000
      3          3.660580   1.000000
      4          3.820715   1.000000
      5          7.189712   0.000000
      6          9.062543   0.000000
      7         10.709229   0.000000
      8         11.047319   0.000000
 
  0.4000000E+00  0.2000000E+00  0.0000000E+00  0.2400000E-01
      1         -4.395821   1.000000
      2          0.353926   1.000000
      3          3.040534   1.000000
      4          3.662885   1.000000
      5          7.404524   0.000000
      6          9.687464   0.000000
      7         10.478603   0.000000
      8         11.013822   0.000000
 
  0.5000000E+00  0.2000000E+00  0.0000000E+00  0.2400000E-01
      1         -3.682654   1.000000
      2         -0.802622   1.000000
      3          2.539106   1.000000
      4          3.704846   1.000000
      5          7.468247   0.000000
      6         10.259657   0.000000
      7         10.696434   0.000000
      8         11.213423   0.000000
 
 -0.4000000E+00  0.2000000E+00  0.0000000E+00  0.2400000E-01
      1         -3.534844   1.000000
      2         -1.004585   1.000000
      3          2.247851   1.000000
      4          3.937569   1.000000
      5          7.676070   0.000000
      6         10.164808   0.000000
      7         10.398198   0.000000
      8         13.112717   0.000000
 
 -0.3000000E+00  0.2000000E+00  0.0000000E+00  0.2400000E-01
      1         -4.171471   1.000000
      2         -0.042583   1.000000
      3          2.233195   1.000000
      4          4.326301   1.000000
      5          8.058206   0.000000
      6         10.122240   0.000000
      7         10.179662   0.000000
      8         12.235880   0.000000
 
 -0.2000000E+00  0.2000000E+00  0.0000000E+00  0.1200000E-01
      1         -4.874301   1.000000
      2          1.170906   1.000000
      3          2.683887   1.000000
      4          4.786474   1.000000
      5          8.468795   0.000000
      6          9.583331   0.000000
      7          9.887448   0.000000
      8         11.275085   0.000000
 
  0.3000000E+00  0.3000000E+00  0.0000000E+00  0.6000000E-02
      1         -4.676434   1.000000
      2          1.213439   1.000000
      3          3.435071   1.000000
      4          3.435071   1.000000
      5          6.506949   0.000000
      6          8.053811   0.000000
      7         12.189371   0.000000
      8         12.189371   0.000000
 
  0.4000000E+00  0.3000000E+00  0.0000000E+00  0.2400000E-01
      1         -4.075152   1.000000
      2          0.224772   1.000000
      3          2.823744   1.000000
      4          3.233470   1.000000
      5          6.694371   0.000000
      6          7.883214   0.000000
      7         12.473485   0.000000
      8         12.613816   0.000000
 
  0.5000000E+00  0.3000000E+00  0.0000000E+00  0.2400000E-01
      1         -3.341226   1.000000
      2         -0.761002   1.000000
      3          2.013866   1.000000
      4          3.239319   1.000000
      5          6.875640   0.000000
      6          8.993939   0.000000
      7         12.287878   0.000000
      8         12.375623   0.000000
 
 -0.4000000E+00  0.3000000E+00  0.0000000E+00  0.2400000E-01
      1         -2.935170   1.000000
      2         -1.223025   1.000000
      3          1.473144   1.000000
      4          3.450180   1.000000
      5          7.103691   0.000000
      6         10.778785   0.000000
      7         11.980189   0.000000
      8         12.127672   0.000000
 
 -0.3000000E+00  0.3000000E+00  0.0000000E+00  0.1200000E-01
      1         -3.460789   1.000000
      2         -0.645291   1.000000
      3          1.448694   1.000000
      4          3.838199   1.000000
      5          7.536110   0.000000
      6         11.311975   0.000000
      7         11.623003   0.000000
      8         12.345428   0.000000
 
  0.4000000E+00  0.4000000E+00  0.0000000E+00  0.6000000E-02
      1         -3.534663   1.000000
      2         -0.519764   1.000000
      3          2.978055   1.000000
      4          2.978055   1.000000
      5          6.235256   0.000000
      6          6.966879   0.000000
      7         14.018821   0.000000
      8         14.018821   0.000000
 
  0.5000000E+00  0.4000000E+00  0.0000000E+00  0.2400000E-01
      1         -2.819962   1.000000
      2         -1.345983   1.000000
      3          2.409012   1.000000
      4          2.930092   1.000000
      5          6.471063   0.000000
      6          7.216423   0.000000
      7         14.268125   0.000000
      8         14.345166   0.000000
 
 -0.4000000E+00  0.4000000E+00  0.0000000E+00  0.1200000E-01
      1         -2.359149   1.000000
      2         -1.755922   1.000000
      3          1.647934   1.000000
      4          3.093948   1.000000
      5          6.681181   0.000000
      6          8.766488   0.000000
      7         13.615133   0.000000
      8         14.190216   0.000000
 
  0.5000000E+00  0.5000000E+00  0.0000000E+00  0.3000000E-02
      1         -2.129064   1.000000
      2         -2.129064   1.000000
      3          2.823147   1.000000
      4          2.823147   1.000000
      5          6.368991   0.000000
      6          6.368991   0.000000
      7         15.555324   0.000000
      8         15.555324   0.000000
 
  0.3000000E+00  0.2000000E+00  0.1000000E+00  0.2400000E-01
      1         -5.352799   1.000000
      2          2.255965   1.000000
      3          3.584476   1.000000
      4          4.662141   1.000000
      5          7.962630   0.000000
      6          9.267227   0.000000
      7         10.215917   0.000000
      8         10.236787   0.000000
 
  0.4000000E+00  0.2000000E+00  0.1000000E+00  0.4800000E-01
      1         -4.753199   1.000000
      2          0.873425   1.000000
      3          3.000761   1.000000
      4          4.296438   1.000000
      5          8.302721   0.000000
      6          9.184825   0.000000
      7         10.309546   0.000000
      8         10.702231   0.000000
 
  0.5000000E+00  0.2000000E+00  0.1000000E+00  0.4800000E-01
      1         -4.023173   1.000000
      2         -0.459677   1.000000
      3          2.766934   1.000000
      4          3.955568   1.000000
      5          8.341203   0.000000
      6          8.895367   0.000000
      7         10.629233   0.000000
      8         11.630540   0.000000
 
 -0.4000000E+00  0.2000000E+00  0.1000000E+00  0.2400000E-01
      1         -3.577702   1.000000
      2         -1.119390   1.000000
      3          2.705688   1.000000
      4          3.821652   1.000000
      5          8.353879   0.000000
      6          8.731691   0.000000
      7         10.592341   0.000000
      8         13.348762   0.000000
 
  0.4000000E+00  0.3000000E+00  0.1000000E+00  0.2400000E-01
      1         -4.530049   1.000000
      2          0.867423   1.000000
      3          2.871533   1.000000
      4          3.576452   1.000000
      5          7.404239   0.000000
      6          8.684117   0.000000
      7         10.758570   0.000000
      8         12.082088   0.000000
 
  0.5000000E+00  0.3000000E+00  0.1000000E+00  0.4800000E-01
      1         -3.824721   1.000000
      2         -0.212971   1.000000
      3          2.262884   1.000000
      4          3.257146   1.000000
      5          7.784752   0.000000
      6          9.370497   0.000000
      7         10.384505   0.000000
      8         12.473581   0.000000
 
 -0.4000000E+00  0.3000000E+00  0.1000000E+00  0.4800000E-01
      1         -3.191771   1.000000
      2         -1.053061   1.000000
      3          1.860649   1.000000
      4          3.202892   1.000000
      5          7.964594   0.000000
      6          9.957287   0.000000
      7         11.080525   0.000000
      8         12.401676   0.000000
 
 -0.3000000E+00  0.3000000E+00  0.1000000E+00  0.4800000E-01
      1         -3.388099   1.000000
      2         -0.800559   1.000000
      3          1.716007   1.000000
      4          3.436723   1.000000
      5          8.298164   0.000000
      6          9.702815   0.000000
      7         11.509806   0.000000
      8         12.286743   0.000000
 
 -0.2000000E+00  0.3000000E+00  0.1000000E+00  0.2400000E-01
      1         -4.106435   1.000000
      2          0.128469   1.000000
      3          2.014051   1.000000
      4          3.865911   1.000000
      5          8.777153   0.000000
      6          9.255681   0.000000
      7         10.302721   0.000000
      8         11.810573   0.000000
 
  0.5000000E+00  0.4000000E+00  0.1000000E+00  0.2400000E-01
      1         -3.419711   1.000000
      2         -0.604994   1.000000
      3          2.468888   1.000000
      4          2.790044   1.000000
      5          7.120741   0.000000
      6          7.713971   0.000000
      7         12.291569   0.000000
      8         14.004995   0.000000
 
 -0.4000000E+00  0.4000000E+00  0.1000000E+00  0.4800000E-01
      1         -2.698273   1.000000
      2         -1.365810   1.000000
      3          1.786973   1.000000
      4          2.700925   1.000000
      5          7.470963   0.000000
      6          8.895661   0.000000
      7         11.897261   0.000000
      8         13.653315   0.000000
 
 -0.3000000E+00  0.4000000E+00  0.1000000E+00  0.2400000E-01
      1         -2.707473   1.000000
      2         -1.336339   1.000000
      3          1.381748   1.000000
      4          2.964419   1.000000
      5          7.792382   0.000000
      6         10.713239   0.000000
      7         11.495374   0.000000
      8         11.833835   0.000000
 
 -0.4000000E+00  0.5000000E+00  0.1000000E+00  0.1200000E-01
      1         -2.078756   1.000000
      2         -2.078756   1.000000
      3          2.427959   1.000000
      4          2.427959   1.000000
      5          7.203741   0.000000
      6          7.203741   0.000000
      7         14.005081   0.000000
      8         14.005081   0.000000
 
 -0.4000000E+00  0.4000000E+00  0.2000000E+00  0.2400000E-01
      1         -3.108155   1.000000
      2         -0.897021   1.000000
      3          1.728118   1.000000
      4          2.695277   1.000000
      5          9.000274   0.000000
      6          9.397323   0.000000
      7          9.989578   0.000000
      8         13.321382   0.000000
 
 -0.3000000E+00  0.4000000E+00  0.2000000E+00  0.2400000E-01
      1         -2.609628   1.000000
      2         -1.396408   1.000000
      3          1.574870   1.000000
      4          2.450333   1.000000
      5          9.293546   0.000000
      6          9.570187   0.000000
      7         10.979967   0.000000
      8         11.386308   0.000000
 
 -0.3000000E+00  0.5000000E+00  0.2000000E+00  0.1200000E-01
      1         -1.990468   1.000000
      2         -1.990468   1.000000
      3          1.930945   1.000000
      4          1.930945   1.000000
      5          9.043201   0.000000
      6          9.043201   0.000000
      7         11.479950   0.000000
      8         11.479950   0.000000
