-------------------Job starts at-------------------
 8:14:20 Jan-29-2025
---------------------------------------------------

Lmod is automatically replacing "gcc/12.3" with "intel/2023.2.1".


Due to MODULEPATH changes, the following have been reloaded:
  1) flexiblas/3.3.1     2) openmpi/4.1.5

Lmod Warning:  Please use the version of VASP compiled with Intel MPI, as the
version with openmpi-4.1.5 exhibits a memory leak, resulting in continuously
increasing memory usage at runtime.

   Veuillez utiliser la version de VASP compilée avec Intel MPI, car la
version avec openmpi-4.1.5 présente une fuite de mémoire, entraînant une
augmentation continue de l'utilisation de la mémoire pendant l'exécution. 
While processing the following module(s):
    Module fullname  Module Filename
    ---------------  ---------------
    vasp/6.4.2       /cvmfs/soft.computecanada.ca/easybuild/modules/2023/x86-64-v3/MPI/intel2023/openmpi4/vasp/6.4.2.lua

 running    4 mpi-ranks, on    1 nodes
 distrk:  each k-point on    4 cores,    1 groups
 distr:  one band on    1 cores,    4 groups
 vasp.6.4.2 20Jul23 (build Oct 16 2024 22:45:58) complex                        
  
 POSCAR found type information on POSCAR Si
 POSCAR found :  1 types and       2 ions
 Reading from existing POTCAR
 scaLAPACK will be used
 Reading from existing POTCAR
 LDA part: xc-table for Pade appr. of Perdew
 POSCAR found type information on POSCAR Si
 POSCAR found :  1 types and       2 ions
 POSCAR, INCAR and KPOINTS ok, starting setup
 FFT: planning ... GRIDC
 FFT: planning ... GRID_SOFT
 FFT: planning ... GRID
 WAVECAR not read
 entering main loop
       N       E                     dE             d eps       ncg     rms          rms(c)
DAV:   1     0.679803755545E+01    0.67980E+01   -0.32786E+03   760   0.766E+02
DAV:   2    -0.107705657622E+02   -0.17569E+02   -0.16993E+02  1152   0.824E+01
DAV:   3    -0.110232640977E+02   -0.25270E+00   -0.25270E+00   976   0.119E+01
DAV:   4    -0.110243597502E+02   -0.10957E-02   -0.10957E-02  1192   0.861E-01
DAV:   5    -0.110243619421E+02   -0.21918E-05   -0.21919E-05   992   0.261E-02    0.488E+00
DAV:   6    -0.108995881840E+02    0.12477E+00   -0.82747E-02   936   0.151E+00    0.299E+00
DAV:   7    -0.108427941788E+02    0.56794E-01   -0.15596E-01   928   0.220E+00    0.191E-01
DAV:   8    -0.108438733857E+02   -0.10792E-02   -0.40785E-03   872   0.485E-01    0.746E-02
DAV:   9    -0.108440605129E+02   -0.18713E-03   -0.18148E-04  1112   0.107E-01    0.559E-02
DAV:  10    -0.108440876502E+02   -0.27137E-04   -0.32750E-05   912   0.429E-02    0.954E-03
DAV:  11    -0.108440873587E+02    0.29148E-06   -0.51500E-07  1160   0.516E-03    0.228E-03
DAV:  12    -0.108440876708E+02   -0.31210E-06   -0.56198E-07   912   0.602E-03    0.975E-04
DAV:  13    -0.108440876853E+02   -0.14494E-07   -0.19090E-09  1016   0.378E-04    0.207E-04
DAV:  14    -0.108440876895E+02   -0.41426E-08   -0.26534E-10   568   0.149E-04
   1 F= -.10844088E+02 E0= -.10844088E+02  d E =-.108441E+02
 curvature:   0.00 expect dE= 0.000E+00 dE for cont linesearch  0.000E+00
 trial: gam= 0.00000 g(F)=  0.461E-49 g(S)=  0.172E-01 ort = 0.000E+00 (trialstep = 0.100E+01)
 search vector abs. value=  0.172E-01
 bond charge predicted
       N       E                     dE             d eps       ncg     rms          rms(c)
DAV:   1    -0.108536975339E+02   -0.96098E-02   -0.26407E-01   888   0.291E+00    0.482E-01
DAV:   2    -0.108492364483E+02    0.44611E-02   -0.38195E-03   992   0.432E-01    0.296E-01
DAV:   3    -0.108468859706E+02    0.23505E-02   -0.49040E-03   872   0.356E-01    0.957E-02
DAV:   4    -0.108468869021E+02   -0.93156E-06   -0.49593E-05  1024   0.637E-02    0.837E-02
DAV:   5    -0.108468761620E+02    0.10740E-04   -0.12930E-05   904   0.263E-02    0.172E-02
DAV:   6    -0.108468764630E+02   -0.30097E-06   -0.14913E-07  1088   0.354E-03    0.835E-03
DAV:   7    -0.108468766732E+02   -0.21024E-06   -0.19058E-07   880   0.357E-03    0.371E-03
DAV:   8    -0.108468766637E+02    0.94759E-08   -0.64742E-09   976   0.521E-04
   2 F= -.10846877E+02 E0= -.10846877E+02  d E =-.278897E-02
 trial-energy change:   -0.002789  1 .order   -0.003039   -0.017210    0.011133
 step:   0.5945(harm=  0.6072)  dis= 0.00000  next Energy=   -10.849151 (dE=-0.506E-02)
 bond charge predicted
       N       E                     dE             d eps       ncg     rms          rms(c)
DAV:   1    -0.108502354541E+02   -0.33588E-02   -0.44062E-02   888   0.120E+00    0.198E-01
DAV:   2    -0.108495039054E+02    0.73155E-03   -0.62612E-04  1000   0.174E-01    0.120E-01
DAV:   3    -0.108491290562E+02    0.37485E-03   -0.80599E-04   872   0.145E-01    0.401E-02
DAV:   4    -0.108491301908E+02   -0.11345E-05   -0.81981E-06  1024   0.260E-02    0.357E-02
DAV:   5    -0.108491327448E+02   -0.25540E-05   -0.21077E-06   896   0.108E-02    0.835E-03
DAV:   6    -0.108491326369E+02    0.10789E-06   -0.24143E-08  1040   0.146E-03    0.399E-03
DAV:   7    -0.108491326574E+02   -0.20548E-07   -0.28146E-08   872   0.140E-03    0.159E-03
DAV:   8    -0.108491326612E+02   -0.38160E-08   -0.14961E-09   568   0.266E-04
   3 F= -.10849133E+02 E0= -.10849133E+02  d E =-.504497E-02
 curvature:  -0.30 expect dE=-0.371E-07 dE for cont linesearch -0.371E-07
 trial: gam=-0.00266 g(F)=  0.525E-49 g(S)=  0.122E-06 ort = 0.459E-04 (trialstep = 0.919E+00)
 search vector abs. value=  0.101E-09
 reached required accuracy - stopping structural energy minimisation
--------------------Job ends at--------------------
 8:14:57 Jan-29-2025
---------------------------------------------------
