<?xml version="1.0" encoding="ISO-8859-1"?>
<modeling>
 <generator>
  <i name="program" type="string">vasp </i>
  <i name="version" type="string">6.4.2  </i>
  <i name="subversion" type="string">20Jul23 (build Oct 16 2024 22:45:58) complex                          parallel </i>
  <i name="platform" type="string">LinuxIFC </i>
  <i name="date" type="string">2025 01 29 </i>
  <i name="time" type="string">08:14:33 </i>
 </generator>
 <incar>
  <i type="string" name="SYSTEM">Si FCC</i>
  <i type="string" name="PREC">Accurate</i>
  <i type="int" name="IBRION">     2</i>
  <i name="EDIFF">      0.00000001</i>
  <i type="int" name="NSW">   100</i>
  <i type="int" name="ISIF">     3</i>
  <i name="ENCUT">    520.00000000</i>
  <i type="int" name="ISMEAR">     0</i>
  <i name="SIGMA">      0.03000000</i>
  <i type="logical" name="LWAVE"> F  </i>
  <i type="logical" name="LCHARG"> F  </i>
  <i type="string" name="GGA">PE</i>
 </incar>
 <primitive_cell>
  <structure name="primitive_cell" >
   <crystal>
    <varray name="basis" >
     <v>       0.00000000       2.71525000       2.71525000 </v>
     <v>       2.71525000       0.00000000       2.71525000 </v>
     <v>       2.71525000       2.71525000       0.00000000 </v>
    </varray>
    <i name="volume">     40.03680961 </i>
    <varray name="rec_basis" >
     <v>      -0.18414511       0.18414511       0.18414511 </v>
     <v>       0.18414511      -0.18414511       0.18414511 </v>
     <v>       0.18414511       0.18414511      -0.18414511 </v>
    </varray>
   </crystal>
   <varray name="positions" >
    <v>       0.00000000       0.00000000       0.00000000 </v>
    <v>       0.25000000       0.25000000       0.25000000 </v>
   </varray>
  </structure>
  <varray name="primitive_index" >
   <v type="int" >        1 </v>
   <v type="int" >        2 </v>
  </varray>
 </primitive_cell>
 <kpoints>
  <generation param="Gamma">
   <v type="int" name="divisions">      10       10       10 </v>
   <v name="usershift">      0.00000000       0.00000000       0.00000000 </v>
   <v name="genvec1">      0.10000000       0.00000000       0.00000000 </v>
   <v name="genvec2">      0.00000000       0.10000000       0.00000000 </v>
   <v name="genvec3">      0.00000000       0.00000000       0.10000000 </v>
   <v name="shift">      0.00000000       0.00000000       0.00000000 </v>
  </generation>
  <varray name="kpointlist" >
   <v>       0.00000000       0.00000000       0.00000000 </v>
   <v>       0.10000000       0.00000000       0.00000000 </v>
   <v>       0.20000000       0.00000000       0.00000000 </v>
   <v>       0.30000000       0.00000000       0.00000000 </v>
   <v>       0.40000000       0.00000000       0.00000000 </v>
   <v>       0.50000000       0.00000000       0.00000000 </v>
   <v>       0.10000000       0.10000000       0.00000000 </v>
   <v>       0.20000000       0.10000000       0.00000000 </v>
   <v>       0.30000000       0.10000000       0.00000000 </v>
   <v>       0.40000000       0.10000000       0.00000000 </v>
   <v>       0.50000000       0.10000000       0.00000000 </v>
   <v>      -0.40000000       0.10000000       0.00000000 </v>
   <v>      -0.30000000       0.10000000       0.00000000 </v>
   <v>      -0.20000000       0.10000000       0.00000000 </v>
   <v>      -0.10000000       0.10000000       0.00000000 </v>
   <v>       0.20000000       0.20000000       0.00000000 </v>
   <v>       0.30000000       0.20000000       0.00000000 </v>
   <v>       0.40000000       0.20000000       0.00000000 </v>
   <v>       0.50000000       0.20000000       0.00000000 </v>
   <v>      -0.40000000       0.20000000       0.00000000 </v>
   <v>      -0.30000000       0.20000000       0.00000000 </v>
   <v>      -0.20000000       0.20000000       0.00000000 </v>
   <v>       0.30000000       0.30000000       0.00000000 </v>
   <v>       0.40000000       0.30000000       0.00000000 </v>
   <v>       0.50000000       0.30000000       0.00000000 </v>
   <v>      -0.40000000       0.30000000       0.00000000 </v>
   <v>      -0.30000000       0.30000000       0.00000000 </v>
   <v>       0.40000000       0.40000000       0.00000000 </v>
   <v>       0.50000000       0.40000000       0.00000000 </v>
   <v>      -0.40000000       0.40000000       0.00000000 </v>
   <v>       0.50000000       0.50000000       0.00000000 </v>
   <v>       0.30000000       0.20000000       0.10000000 </v>
   <v>       0.40000000       0.20000000       0.10000000 </v>
   <v>       0.50000000       0.20000000       0.10000000 </v>
   <v>      -0.40000000       0.20000000       0.10000000 </v>
   <v>       0.40000000       0.30000000       0.10000000 </v>
   <v>       0.50000000       0.30000000       0.10000000 </v>
   <v>      -0.40000000       0.30000000       0.10000000 </v>
   <v>      -0.30000000       0.30000000       0.10000000 </v>
   <v>      -0.20000000       0.30000000       0.10000000 </v>
   <v>       0.50000000       0.40000000       0.10000000 </v>
   <v>      -0.40000000       0.40000000       0.10000000 </v>
   <v>      -0.30000000       0.40000000       0.10000000 </v>
   <v>      -0.40000000       0.50000000       0.10000000 </v>
   <v>      -0.40000000       0.40000000       0.20000000 </v>
   <v>      -0.30000000       0.40000000       0.20000000 </v>
   <v>      -0.30000000       0.50000000       0.20000000 </v>
  </varray>
  <varray name="weights" >
   <v>       0.00100000 </v>
   <v>       0.00800000 </v>
   <v>       0.00800000 </v>
   <v>       0.00800000 </v>
   <v>       0.00800000 </v>
   <v>       0.00400000 </v>
   <v>       0.00600000 </v>
   <v>       0.02400000 </v>
   <v>       0.02400000 </v>
   <v>       0.02400000 </v>
   <v>       0.02400000 </v>
   <v>       0.02400000 </v>
   <v>       0.02400000 </v>
   <v>       0.02400000 </v>
   <v>       0.01200000 </v>
   <v>       0.00600000 </v>
   <v>       0.02400000 </v>
   <v>       0.02400000 </v>
   <v>       0.02400000 </v>
   <v>       0.02400000 </v>
   <v>       0.02400000 </v>
   <v>       0.01200000 </v>
   <v>       0.00600000 </v>
   <v>       0.02400000 </v>
   <v>       0.02400000 </v>
   <v>       0.02400000 </v>
   <v>       0.01200000 </v>
   <v>       0.00600000 </v>
   <v>       0.02400000 </v>
   <v>       0.01200000 </v>
   <v>       0.00300000 </v>
   <v>       0.02400000 </v>
   <v>       0.04800000 </v>
   <v>       0.04800000 </v>
   <v>       0.02400000 </v>
   <v>       0.02400000 </v>
   <v>       0.04800000 </v>
   <v>       0.04800000 </v>
   <v>       0.04800000 </v>
   <v>       0.02400000 </v>
   <v>       0.02400000 </v>
   <v>       0.04800000 </v>
   <v>       0.02400000 </v>
   <v>       0.01200000 </v>
   <v>       0.02400000 </v>
   <v>       0.02400000 </v>
   <v>       0.01200000 </v>
  </varray>
 </kpoints>
 <parameters>
  <separator name="general" >
   <i type="string" name="SYSTEM">Si FCC</i>
   <i type="logical" name="LCOMPAT"> F  </i>
  </separator>
  <separator name="electronic" >
   <i type="string" name="PREC">accura</i>
   <i name="ENMAX">    520.00000000</i>
   <i name="ENAUG">    322.06900000</i>
   <i name="EDIFF">      0.00000001</i>
   <i type="int" name="IALGO">    38</i>
   <i type="int" name="IWAVPR">    11</i>
   <i type="int" name="NBANDS">     8</i>
   <i type="int" name="NBANDSLOW">    -1</i>
   <i type="int" name="NBANDSHIGH">    -1</i>
   <i name="NELECT">      8.00000000</i>
   <i type="int" name="TURBO">     0</i>
   <i type="int" name="IRESTART">     0</i>
   <i type="int" name="NREBOOT">     0</i>
   <i type="int" name="NMIN">     0</i>
   <i name="EREF">      0.00000000</i>
   <separator name="electronic smearing" >
    <i type="int" name="ISMEAR">     0</i>
    <i name="SIGMA">      0.03000000</i>
    <i name="KSPACING">      0.50000000</i>
    <i type="logical" name="KGAMMA"> T  </i>
    <i type="logical" name="KBLOWUP"> T  </i>
   </separator>
   <separator name="electronic projectors" >
    <i type="logical" name="LREAL"> F  </i>
    <v name="ROPT">      0.00000000</v>
    <i type="int" name="LMAXPAW">  -100</i>
    <i type="int" name="LMAXMIX">     2</i>
    <i type="logical" name="NLSPLINE"> F  </i>
   </separator>
   <separator name="electronic startup" >
    <i type="int" name="ISTART">     0</i>
    <i type="int" name="ICHARG">     2</i>
    <i type="int" name="INIWAV">     1</i>
   </separator>
   <separator name="electronic spin" >
    <i type="int" name="ISPIN">     1</i>
    <i type="logical" name="LNONCOLLINEAR"> F  </i>
    <v name="MAGMOM">      1.00000000      1.00000000</v>
    <i name="NUPDOWN">     -1.00000000</i>
    <i type="logical" name="LSORBIT"> F  </i>
    <v name="SAXIS">      0.00000000      0.00000000      1.00000000</v>
    <i type="logical" name="LSPIRAL"> F  </i>
    <v name="QSPIRAL">      0.00000000      0.00000000      0.00000000</v>
    <i type="logical" name="LZEROZ"> F  </i>
   </separator>
   <separator name="electronic exchange-correlation" >
    <i type="logical" name="LASPH"> F  </i>
    <i type="logical" name="LMETAGGA"> F  </i>
   </separator>
   <separator name="electronic convergence" >
    <i type="int" name="NELM">    60</i>
    <i type="int" name="NELMDL">    -5</i>
    <i type="int" name="NELMIN">     2</i>
    <i name="ENINI">    520.00000000</i>
    <separator name="electronic convergence detail" >
     <i type="logical" name="LDIAG"> T  </i>
     <i type="logical" name="LSUBROT"> F  </i>
     <i name="WEIMIN">      0.00100000</i>
     <i name="EBREAK">      0.00000000</i>
     <i name="DEPER">      0.30000000</i>
     <i type="int" name="NRMM">     4</i>
     <i name="TIME">      0.40000000</i>
    </separator>
   </separator>
   <separator name="electronic mixer" >
    <i name="AMIX">      0.40000000</i>
    <i name="BMIX">      1.00000000</i>
    <i name="AMIN">      0.10000000</i>
    <i name="AMIX_MAG">      1.60000000</i>
    <i name="BMIX_MAG">      1.00000000</i>
    <separator name="electronic mixer details" >
     <i type="int" name="IMIX">     4</i>
     <i type="logical" name="MIXFIRST"> F  </i>
     <i type="int" name="MAXMIX">   -45</i>
     <i name="WC">    100.00000000</i>
     <i type="int" name="INIMIX">     1</i>
     <i type="int" name="MIXPRE">     1</i>
     <i type="int" name="MREMOVE">     5</i>
    </separator>
   </separator>
   <separator name="electronic dipolcorrection" >
    <i type="logical" name="LDIPOL"> F  </i>
    <i type="logical" name="LMONO"> F  </i>
    <i type="int" name="IDIPOL">     0</i>
    <i name="EPSILON">      1.00000000</i>
    <v name="DIPOL">   -100.00000000   -100.00000000   -100.00000000</v>
    <i name="EFIELD">      0.00000000</i>
   </separator>
  </separator>
  <separator name="grids" >
   <i type="int" name="NGX">    30</i>
   <i type="int" name="NGY">    30</i>
   <i type="int" name="NGZ">    30</i>
   <i type="int" name="NGXF">    60</i>
   <i type="int" name="NGYF">    60</i>
   <i type="int" name="NGZF">    60</i>
   <i type="logical" name="ADDGRID"> F  </i>
  </separator>
  <separator name="ionic" >
   <i type="int" name="NSW">   100</i>
   <i type="int" name="IBRION">     2</i>
   <i type="int" name="MDALGO">     0</i>
   <i type="int" name="ISIF">     3</i>
   <i name="PSTRESS">      0.00000000</i>
   <i name="EDIFFG">      0.00000010</i>
   <i type="int" name="NFREE">     1</i>
   <i name="POTIM">      0.50000000</i>
   <i name="SMASS">     -3.00000000</i>
   <i name="SCALEE">      1.00000000</i>
  </separator>
  <separator name="ionic md" >
   <i name="TEBEG">      0.00010000</i>
   <i name="TEEND">      0.00010000</i>
   <i type="int" name="NBLOCK">     1</i>
   <i type="int" name="KBLOCK">   100</i>
   <i type="int" name="NPACO">   256</i>
   <i name="APACO">     10.00000000</i>
  </separator>
  <separator name="symmetry" >
   <i type="int" name="ISYM">     2</i>
   <i name="SYMPREC">      0.00001000</i>
  </separator>
  <separator name="dos" >
   <i type="int" name="LORBIT">     0</i>
   <v name="RWIGS">     -1.00000000</v>
   <i type="int" name="NEDOS">   301</i>
   <i name="EMIN">     10.00000000</i>
   <i name="EMAX">    -10.00000000</i>
   <i name="EFERMI">      0.00000000</i>
  </separator>
  <separator name="writing" >
   <i type="int" name="NWRITE">     2</i>
   <i type="logical" name="LWAVE"> F  </i>
   <i type="logical" name="LDOWNSAMPLE"> F  </i>
   <i type="logical" name="LCHARG"> F  </i>
   <i type="logical" name="LPARD"> F  </i>
   <i type="logical" name="LVTOT"> F  </i>
   <i type="logical" name="LVHAR"> F  </i>
   <i type="logical" name="LELF"> F  </i>
   <i type="logical" name="LOPTICS"> F  </i>
   <v name="STM">      0.00000000      0.00000000      0.00000000      0.00000000      0.00000000      0.00000000      0.00000000</v>
  </separator>
  <separator name="performance" >
   <i type="int" name="NPAR">     4</i>
   <i type="int" name="NSIM">     4</i>
   <i type="int" name="NBLK">    -1</i>
   <i type="logical" name="LPLANE"> T  </i>
   <i type="logical" name="LSCALAPACK"> T  </i>
   <i type="logical" name="LSCAAWARE"> F  </i>
   <i type="logical" name="LSCALU"> F  </i>
   <i type="logical" name="LASYNC"> F  </i>
   <i type="logical" name="LORBITALREAL"> F  </i>
  </separator>
  <separator name="miscellaneous" >
   <i type="int" name="IDIOT">     3</i>
   <i type="int" name="PHON_NSTRUCT">    -1</i>
   <i type="logical" name="LMUSIC"> F  </i>
   <v name="POMASS">     28.08500000</v>
   <v name="DARWINR">      0.00000000</v>
   <v name="DARWINV">      1.00000000</v>
   <i type="logical" name="LCORR"> T  </i>
  </separator>
  <i type="logical" name="GGA_COMPAT"> T  </i>
  <i type="logical" name="LBERRY"> F  </i>
  <i type="int" name="ICORELEVEL">     0</i>
  <i type="logical" name="LDAU"> F  </i>
  <i type="int" name="I_CONSTRAINED_M">     0</i>
  <separator name="electronic exchange-correlation" >
   <i type="string" name="GGA">PE</i>
   <i type="int" name="VOSKOWN">     0</i>
   <i type="logical" name="LHFCALC"> F  </i>
   <i type="string" name="PRECFOCK"></i>
   <i type="logical" name="LSYMGRAD"> F  </i>
   <i type="logical" name="LHFONE"> F  </i>
   <i type="logical" name="LRHFCALC"> F  </i>
   <i type="logical" name="LTHOMAS"> F  </i>
   <i type="logical" name="LMODELHF"> F  </i>
   <i type="logical" name="LFOCKACE"> F  </i>
   <i name="ENCUT4O">     -1.00000000</i>
   <i type="int" name="EXXOEP">     0</i>
   <i type="int" name="FOURORBIT">     0</i>
   <i name="AEXX">      0.00000000</i>
   <i name="HFALPHA">      0.00000000</i>
   <i name="MCALPHA">      0.00000000</i>
   <i name="ALDAX">      1.00000000</i>
   <i name="AGGAX">      1.00000000</i>
   <i name="ALDAC">      1.00000000</i>
   <i name="AGGAC">      1.00000000</i>
   <i type="int" name="NKREDX">     1</i>
   <i type="int" name="NKREDY">     1</i>
   <i type="int" name="NKREDZ">     1</i>
   <i type="logical" name="SHIFTRED"> F  </i>
   <i type="logical" name="ODDONLY"> F  </i>
   <i type="logical" name="EVENONLY"> F  </i>
   <i type="int" name="LMAXFOCK">     0</i>
   <i type="int" name="NMAXFOCKAE">     0</i>
   <i type="logical" name="LFOCKAEDFT"> F  </i>
   <i name="HFSCREEN">      0.00000000</i>
   <i name="HFSCREENC">      0.00000000</i>
   <i type="int" name="NBANDSGWLOW">     0</i>
  </separator>
  <separator name="vdW DFT" >
   <i type="logical" name="LUSE_VDW"> F  </i>
   <i type="int" name="IVDW_NL">     1</i>
   <i type="logical" name="LSPIN_VDW"> F  </i>
   <i name="Zab_VDW">     -0.84910000</i>
   <i name="PARAM1">      0.12340000</i>
   <i name="PARAM2">      1.00000000</i>
   <i name="PARAM3">      0.00000000</i>
  </separator>
  <separator name="model GW" >
   <i type="int" name="MODEL_GW">     0</i>
   <i name="MODEL_EPS0">     12.01104288</i>
   <i name="MODEL_ALPHA">      1.00000000</i>
  </separator>
  <separator name="linear response parameters" >
   <i type="logical" name="LEPSILON"> F  </i>
   <i type="logical" name="LRPA"> F  </i>
   <i type="logical" name="LNABLA"> F  </i>
   <i type="logical" name="LVEL"> F  </i>
   <i name="CSHIFT">      0.10000000</i>
   <i name="OMEGAMAX">     -1.00000000</i>
   <i name="DEG_THRESHOLD">      0.00200000</i>
   <i name="RTIME">     -0.10000000</i>
   <i name="WPLASMAI">      0.00000000</i>
   <v name="DFIELD">      0.00000000      0.00000000      0.00000000</v>
   <v name="WPLASMA">      0.00000000      0.00000000      0.00000000      0.00000000      0.00000000      0.00000000      0.00000000      0.00000000      0.00000000</v>
  </separator>
  <separator name="orbital magnetization" >
   <i type="logical" name="NUCIND"> F  </i>
   <v name="MAGPOS">      0.00000000      0.00000000      0.00000000</v>
   <i type="logical" name="LNICSALL"> T  </i>
   <i type="logical" name="ORBITALMAG"> F  </i>
   <i type="logical" name="LMAGBLOCH"> F  </i>
   <i type="logical" name="LCHIMAG"> F  </i>
   <i type="logical" name="LGAUGE"> T  </i>
   <i type="int" name="MAGATOM">     0</i>
   <v name="MAGDIPOL">      0.00000000      0.00000000      0.00000000</v>
   <v name="AVECCONST">      0.00000000      0.00000000      0.00000000</v>
  </separator>
  <separator name="response functions" >
   <i type="logical" name="LALL_IN_ONE"> F  </i>
   <i type="int" name="IALL_IN_ONE">    -1</i>
   <i type="int" name="NBANDS_WAVE">    -1</i>
   <i type="logical" name="LFINITE_TEMPERATURE"> F  </i>
   <i type="logical" name="LADDER"> F  </i>
   <i type="logical" name="LRPAFORCE"> F  </i>
   <i type="logical" name="LFXC"> F  </i>
   <i type="logical" name="LHARTREE"> T  </i>
   <i type="int" name="IBSE">     0</i>
   <v type="int" name="KPOINT">    -1     0     0     0</v>
   <i type="logical" name="LTCTC"> F  </i>
   <i type="logical" name="LTCTE"> F  </i>
   <i type="logical" name="LTETE"> F  </i>
   <i type="logical" name="LTRIPLET"> F  </i>
   <i type="logical" name="LFXCEPS"> F  </i>
   <i type="logical" name="LFXHEG"> F  </i>
   <i type="int" name="NATURALO">     2</i>
   <i type="logical" name="LHOLEGF"> F  </i>
   <i type="logical" name="L2ORDER"> F  </i>
   <i type="logical" name="LDMP1"> F  </i>
   <i type="logical" name="LMP2LT"> F  </i>
   <i type="logical" name="LSMP2LT"> F  </i>
   <i type="logical" name="LGWLF"> F  </i>
   <i name="ENCUTGW">     -1.60000002</i>
   <i name="ENCUTGWSOFT">     -1.60000002</i>
   <i name="ENCUTLF">     -1.00000000</i>
   <i type="logical" name="LESF_SPLINES"> F  </i>
   <i type="int" name="LMAXMP2">    -1</i>
   <i name="SCISSOR">      0.00000000</i>
   <i type="int" name="NOMEGA">     0</i>
   <i type="int" name="NOMEGAR">     0</i>
   <i type="int" name="NBANDSGW">    -1</i>
   <i type="int" name="NBANDSO">    -1</i>
   <i type="int" name="NBANDSV">    -1</i>
   <i type="int" name="NELMGW">     1</i>
   <i type="int" name="NELMHF">     1</i>
   <i type="int" name="DIM">     3</i>
   <i type="int" name="IESPILON">     4</i>
   <i type="int" name="ANTIRES">     0</i>
   <i name="OMEGAMAX">    -30.00000000</i>
   <i name="OMEGAMIN">    -30.00000000</i>
   <i name="OMEGATL">   -200.00000000</i>
   <i type="int" name="OMEGAGRID">     0</i>
   <i name="CSHIFT">     -0.10000000</i>
   <i type="logical" name="LSELFENERGY"> F  </i>
   <i type="logical" name="LSPECTRAL"> F  </i>
   <i type="logical" name="LSPECTRALGW"> F  </i>
   <i type="logical" name="LSINGLES"> F  </i>
   <i type="logical" name="LFERMIGW"> F  </i>
   <i type="logical" name="ODDONLYGW"> F  </i>
   <i type="logical" name="EVENONLYGW"> F  </i>
   <i type="int" name="NKREDLFX">     1</i>
   <i type="int" name="NKREDLFY">     1</i>
   <i type="int" name="NKREDLFZ">     1</i>
   <i type="int" name="MAXMEM">  2800</i>
   <i type="int" name="TELESCOPE">     0</i>
   <i type="int" name="NTAUPAR">    -1</i>
   <i type="int" name="NOMEGAPAR">    -1</i>
   <i name="DAMP_NEWTON">      0.80000001</i>
   <i name="LAMBDA">      1.00000000</i>
  </separator>
  <separator name="External order field" >
   <i name="OFIELD_KAPPA">      0.00000000</i>
   <v name="OFIELD_K">      0.00000000      0.00000000      0.00000000</v>
   <i name="OFIELD_Q6_NEAR">      0.00000000</i>
   <i name="OFIELD_Q6_FAR">      0.00000000</i>
   <i name="OFIELD_A">      0.00000000</i>
  </separator>
  <separator name="optional k-points parameters" >
   <i type="int" name="KPOINTS_OPT_MODE">     1</i>
   <i type="logical" name="LKPOINTS_OPT"> F  </i>
  </separator>
  <separator name="solvation model" >
   <i type="logical" name="LSOL"> F  </i>
  </separator>
 </parameters>
 <atominfo>
  <atoms>       2 </atoms>
  <types>       1 </types>
  <array name="atoms" >
   <dimension dim="1">ion</dimension>
   <field type="string">element</field>
   <field type="int">atomtype</field>
   <set>
    <rc><c>Si</c><c>   1</c></rc>
    <rc><c>Si</c><c>   1</c></rc>
   </set>
  </array>
  <array name="atomtypes" >
   <dimension dim="1">type</dimension>
   <field type="int">atomspertype</field>
   <field type="string">element</field>
   <field>mass</field>
   <field>valence</field>
   <field type="string">pseudopotential</field>
   <set>
    <rc><c>   2</c><c>Si</c><c>     28.08500000</c><c>      4.00000000</c><c>  PAW_PBE Si 05Jan2001                  </c></rc>
   </set>
  </array>
 </atominfo>
 <structure name="initialpos" >
  <crystal>
   <varray name="basis" >
    <v>       0.00000000       2.71525000       2.71525000 </v>
    <v>       2.71525000       0.00000000       2.71525000 </v>
    <v>       2.71525000       2.71525000       0.00000000 </v>
   </varray>
   <i name="volume">     40.03680961 </i>
   <varray name="rec_basis" >
    <v>      -0.18414511       0.18414511       0.18414511 </v>
    <v>       0.18414511      -0.18414511       0.18414511 </v>
    <v>       0.18414511       0.18414511      -0.18414511 </v>
   </varray>
  </crystal>
  <varray name="positions" >
   <v>       0.00000000       0.00000000       0.00000000 </v>
   <v>       0.25000000       0.25000000       0.25000000 </v>
  </varray>
 </structure>
 <calculation>
  <scstep>
   <time name="dav">    0.51    0.52</time>
   <time name="total">    0.55    0.57</time>
   <energy>
    <i name="alphaZ">      3.36321811 </i>
    <i name="ewald">   -228.54248050 </i>
    <i name="hartreedc">    -11.00522831 </i>
    <i name="XCdc">    -18.60295369 </i>
    <i name="pawpsdc">    176.24759923 </i>
    <i name="pawaedc">   -141.06103558 </i>
    <i name="eentropy">     -0.00079900 </i>
    <i name="bandstr">     20.26701456 </i>
    <i name="atom">    206.13270273 </i>
    <i name="e_fr_energy">      6.79803756 </i>
    <i name="e_wo_entrp">      6.79883656 </i>
    <i name="e_0_energy">      6.79843706 </i>
   </energy>
  </scstep>
  <scstep>
   <time name="dav">    0.68    0.69</time>
   <time name="total">    0.68    0.69</time>
   <energy>
    <i name="e_fr_energy">    -10.77056576 </i>
    <i name="e_wo_entrp">    -10.77056576 </i>
    <i name="e_0_energy">    -10.77056576 </i>
   </energy>
  </scstep>
  <scstep>
   <time name="dav">    0.61    0.62</time>
   <time name="total">    0.61    0.62</time>
   <energy>
    <i name="e_fr_energy">    -11.02326410 </i>
    <i name="e_wo_entrp">    -11.02326410 </i>
    <i name="e_0_energy">    -11.02326410 </i>
   </energy>
  </scstep>
  <scstep>
   <time name="dav">    0.70    0.71</time>
   <time name="total">    0.70    0.71</time>
   <energy>
    <i name="e_fr_energy">    -11.02435975 </i>
    <i name="e_wo_entrp">    -11.02435975 </i>
    <i name="e_0_energy">    -11.02435975 </i>
   </energy>
  </scstep>
  <scstep>
   <time name="dav">    0.61    0.61</time>
   <time name="total">    0.65    0.66</time>
   <energy>
    <i name="e_fr_energy">    -11.02436194 </i>
    <i name="e_wo_entrp">    -11.02436194 </i>
    <i name="e_0_energy">    -11.02436194 </i>
   </energy>
  </scstep>
  <scstep>
   <time name="dav">    0.58    0.59</time>
   <time name="total">    0.67    0.67</time>
   <energy>
    <i name="e_fr_energy">    -10.89958818 </i>
    <i name="e_wo_entrp">    -10.89958818 </i>
    <i name="e_0_energy">    -10.89958818 </i>
   </energy>
  </scstep>
  <scstep>
   <time name="dav">    0.58    0.59</time>
   <time name="total">    0.66    0.67</time>
   <energy>
    <i name="e_fr_energy">    -10.84279418 </i>
    <i name="e_wo_entrp">    -10.84279418 </i>
    <i name="e_0_energy">    -10.84279418 </i>
   </energy>
  </scstep>
  <scstep>
   <time name="dav">    0.55    0.55</time>
   <time name="total">    0.63    0.63</time>
   <energy>
    <i name="e_fr_energy">    -10.84387339 </i>
    <i name="e_wo_entrp">    -10.84387339 </i>
    <i name="e_0_energy">    -10.84387339 </i>
   </energy>
  </scstep>
  <scstep>
   <time name="dav">    0.66    0.67</time>
   <time name="total">    0.74    0.74</time>
   <energy>
    <i name="e_fr_energy">    -10.84406051 </i>
    <i name="e_wo_entrp">    -10.84406051 </i>
    <i name="e_0_energy">    -10.84406051 </i>
   </energy>
  </scstep>
  <scstep>
   <time name="dav">    0.57    0.57</time>
   <time name="total">    0.64    0.65</time>
   <energy>
    <i name="e_fr_energy">    -10.84408765 </i>
    <i name="e_wo_entrp">    -10.84408765 </i>
    <i name="e_0_energy">    -10.84408765 </i>
   </energy>
  </scstep>
  <scstep>
   <time name="dav">    0.69    0.70</time>
   <time name="total">    0.76    0.77</time>
   <energy>
    <i name="e_fr_energy">    -10.84408736 </i>
    <i name="e_wo_entrp">    -10.84408736 </i>
    <i name="e_0_energy">    -10.84408736 </i>
   </energy>
  </scstep>
  <scstep>
   <time name="dav">    0.57    0.58</time>
   <time name="total">    0.65    0.66</time>
   <energy>
    <i name="e_fr_energy">    -10.84408767 </i>
    <i name="e_wo_entrp">    -10.84408767 </i>
    <i name="e_0_energy">    -10.84408767 </i>
   </energy>
  </scstep>
  <scstep>
   <time name="dav">    0.62    0.62</time>
   <time name="total">    0.70    0.70</time>
   <energy>
    <i name="e_fr_energy">    -10.84408769 </i>
    <i name="e_wo_entrp">    -10.84408769 </i>
    <i name="e_0_energy">    -10.84408769 </i>
   </energy>
  </scstep>
  <scstep>
   <time name="dav">    0.41    0.42</time>
   <time name="total">    0.45    0.46</time>
   <energy>
    <i name="alphaZ">      3.36321811 </i>
    <i name="ewald">   -228.54248050 </i>
    <i name="hartreedc">    -14.92288825 </i>
    <i name="XCdc">    -17.96405812 </i>
    <i name="pawpsdc">    869.49300851 </i>
    <i name="pawaedc">   -834.53032198 </i>
    <i name="eentropy">     -0.00000000 </i>
    <i name="bandstr">      6.12673180 </i>
    <i name="atom">    206.13270273 </i>
    <i name="e_fr_energy">    -10.84408769 </i>
    <i name="e_wo_entrp">    -10.84408769 </i>
    <i name="e_0_energy">    -10.84408769 </i>
   </energy>
  </scstep>
  <structure>
   <crystal>
    <varray name="basis" >
     <v>       0.00000000       2.71525000       2.71525000 </v>
     <v>       2.71525000       0.00000000       2.71525000 </v>
     <v>       2.71525000       2.71525000       0.00000000 </v>
    </varray>
    <i name="volume">     40.03680961 </i>
    <varray name="rec_basis" >
     <v>      -0.18414511       0.18414511       0.18414511 </v>
     <v>       0.18414511      -0.18414511       0.18414511 </v>
     <v>       0.18414511       0.18414511      -0.18414511 </v>
    </varray>
   </crystal>
   <varray name="positions" >
    <v>       0.00000000       0.00000000       0.00000000 </v>
    <v>       0.25000000       0.25000000       0.25000000 </v>
   </varray>
  </structure>
  <varray name="forces" >
   <v>      -0.00000000      -0.00000000      -0.00000000 </v>
   <v>       0.00000000       0.00000000       0.00000000 </v>
  </varray>
  <varray name="stress" >
   <v>      19.51558647      -0.00000000      -0.00000000 </v>
   <v>      -0.00000000      19.51558647      -0.00000000 </v>
   <v>      -0.00000000       0.00000000      19.51558647 </v>
  </varray>
  <energy>
   <i name="e_fr_energy">    -10.84408769 </i>
   <i name="e_wo_entrp">    -10.84408769 </i>
   <i name="e_0_energy">    -10.84408769 </i>
  </energy>
  <time name="totalsc">    9.49    9.63</time>
 </calculation>
 <calculation>
  <scstep>
   <time name="dav">    0.56    0.56</time>
   <time name="total">    0.64    0.64</time>
   <energy>
    <i name="alphaZ">      3.24726835 </i>
    <i name="ewald">   -225.88530848 </i>
    <i name="hartreedc">    -14.74937070 </i>
    <i name="XCdc">    -18.13595356 </i>
    <i name="pawpsdc">    869.49736144 </i>
    <i name="pawaedc">   -834.53467505 </i>
    <i name="eentropy">     -0.00000000 </i>
    <i name="bandstr">      3.57427774 </i>
    <i name="atom">    206.13270273 </i>
    <i name="e_fr_energy">    -10.85369753 </i>
    <i name="e_wo_entrp">    -10.85369753 </i>
    <i name="e_0_energy">    -10.85369753 </i>
   </energy>
  </scstep>
  <scstep>
   <time name="dav">    0.61    0.62</time>
   <time name="total">    0.69    0.69</time>
   <energy>
    <i name="e_fr_energy">    -10.84923645 </i>
    <i name="e_wo_entrp">    -10.84923645 </i>
    <i name="e_0_energy">    -10.84923645 </i>
   </energy>
  </scstep>
  <scstep>
   <time name="dav">    0.55    0.56</time>
   <time name="total">    0.63    0.64</time>
   <energy>
    <i name="e_fr_energy">    -10.84688597 </i>
    <i name="e_wo_entrp">    -10.84688597 </i>
    <i name="e_0_energy">    -10.84688597 </i>
   </energy>
  </scstep>
  <scstep>
   <time name="dav">    0.63    0.63</time>
   <time name="total">    0.70    0.71</time>
   <energy>
    <i name="e_fr_energy">    -10.84688690 </i>
    <i name="e_wo_entrp">    -10.84688690 </i>
    <i name="e_0_energy">    -10.84688690 </i>
   </energy>
  </scstep>
  <scstep>
   <time name="dav">    0.57    0.57</time>
   <time name="total">    0.66    0.72</time>
   <energy>
    <i name="e_fr_energy">    -10.84687616 </i>
    <i name="e_wo_entrp">    -10.84687616 </i>
    <i name="e_0_energy">    -10.84687616 </i>
   </energy>
  </scstep>
  <scstep>
   <time name="dav">    0.65    0.66</time>
   <time name="total">    0.73    0.74</time>
   <energy>
    <i name="e_fr_energy">    -10.84687646 </i>
    <i name="e_wo_entrp">    -10.84687646 </i>
    <i name="e_0_energy">    -10.84687646 </i>
   </energy>
  </scstep>
  <scstep>
   <time name="dav">    0.56    0.56</time>
   <time name="total">    0.63    0.64</time>
   <energy>
    <i name="e_fr_energy">    -10.84687667 </i>
    <i name="e_wo_entrp">    -10.84687667 </i>
    <i name="e_0_energy">    -10.84687667 </i>
   </energy>
  </scstep>
  <scstep>
   <time name="dav">    0.66    0.67</time>
   <time name="total">    0.71    0.72</time>
   <energy>
    <i name="alphaZ">      3.24726835 </i>
    <i name="ewald">   -225.88530848 </i>
    <i name="hartreedc">    -15.34233466 </i>
    <i name="XCdc">    -18.12398634 </i>
    <i name="pawpsdc">    803.98795320 </i>
    <i name="pawaedc">   -768.99497149 </i>
    <i name="eentropy">     -0.00000000 </i>
    <i name="bandstr">      4.13180003 </i>
    <i name="atom">    206.13270273 </i>
    <i name="e_fr_energy">    -10.84687666 </i>
    <i name="e_wo_entrp">    -10.84687666 </i>
    <i name="e_0_energy">    -10.84687666 </i>
   </energy>
  </scstep>
  <structure>
   <crystal>
    <varray name="basis" >
     <v>      -0.00000000       2.74719049       2.74719049 </v>
     <v>       2.74719049      -0.00000000       2.74719049 </v>
     <v>       2.74719049       2.74719049      -0.00000000 </v>
    </varray>
    <i name="volume">     41.46639846 </i>
    <varray name="rec_basis" >
     <v>      -0.18200412       0.18200412       0.18200412 </v>
     <v>       0.18200412      -0.18200412       0.18200412 </v>
     <v>       0.18200412       0.18200412      -0.18200412 </v>
    </varray>
   </crystal>
   <varray name="positions" >
    <v>      -0.00000000      -0.00000000      -0.00000000 </v>
    <v>       0.25000000       0.25000000       0.25000000 </v>
   </varray>
  </structure>
  <varray name="forces" >
   <v>      -0.00000000      -0.00000000      -0.00000000 </v>
   <v>       0.00000000       0.00000000       0.00000000 </v>
  </varray>
  <varray name="stress" >
   <v>     -12.18878893       0.00000000       0.00000000 </v>
   <v>       0.00000000     -12.18878893      -0.00000000 </v>
   <v>       0.00000000      -0.00000000     -12.18878893 </v>
  </varray>
  <energy>
   <i name="e_fr_energy">    -10.84687666 </i>
   <i name="e_wo_entrp">    -10.84687666 </i>
   <i name="e_0_energy">    -10.84687666 </i>
  </energy>
  <time name="totalsc">    5.77    5.97</time>
 </calculation>
 <calculation>
  <scstep>
   <time name="dav">    0.56    0.57</time>
   <time name="total">    0.64    0.64</time>
   <energy>
    <i name="alphaZ">      3.29363716 </i>
    <i name="ewald">   -226.95539459 </i>
    <i name="hartreedc">    -15.41503030 </i>
    <i name="XCdc">    -18.05518560 </i>
    <i name="pawpsdc">    804.34994907 </i>
    <i name="pawaedc">   -769.35695844 </i>
    <i name="eentropy">     -0.00000000 </i>
    <i name="bandstr">      5.15604452 </i>
    <i name="atom">    206.13270273 </i>
    <i name="e_fr_energy">    -10.85023545 </i>
    <i name="e_wo_entrp">    -10.85023545 </i>
    <i name="e_0_energy">    -10.85023545 </i>
   </energy>
  </scstep>
  <scstep>
   <time name="dav">    0.63    0.64</time>
   <time name="total">    0.70    0.71</time>
   <energy>
    <i name="e_fr_energy">    -10.84950391 </i>
    <i name="e_wo_entrp">    -10.84950391 </i>
    <i name="e_0_energy">    -10.84950391 </i>
   </energy>
  </scstep>
  <scstep>
   <time name="dav">    0.56    0.56</time>
   <time name="total">    0.64    0.64</time>
   <energy>
    <i name="e_fr_energy">    -10.84912906 </i>
    <i name="e_wo_entrp">    -10.84912906 </i>
    <i name="e_0_energy">    -10.84912906 </i>
   </energy>
  </scstep>
  <scstep>
   <time name="dav">    0.63    0.64</time>
   <time name="total">    0.71    0.72</time>
   <energy>
    <i name="e_fr_energy">    -10.84913019 </i>
    <i name="e_wo_entrp">    -10.84913019 </i>
    <i name="e_0_energy">    -10.84913019 </i>
   </energy>
  </scstep>
  <scstep>
   <time name="dav">    0.57    0.58</time>
   <time name="total">    0.69    0.71</time>
   <energy>
    <i name="e_fr_energy">    -10.84913274 </i>
    <i name="e_wo_entrp">    -10.84913274 </i>
    <i name="e_0_energy">    -10.84913274 </i>
   </energy>
  </scstep>
  <scstep>
   <time name="dav">    0.64    0.64</time>
   <time name="total">    0.73    0.78</time>
   <energy>
    <i name="e_fr_energy">    -10.84913264 </i>
    <i name="e_wo_entrp">    -10.84913264 </i>
    <i name="e_0_energy">    -10.84913264 </i>
   </energy>
  </scstep>
  <scstep>
   <time name="dav">    0.56    0.57</time>
   <time name="total">    0.64    0.65</time>
   <energy>
    <i name="e_fr_energy">    -10.84913266 </i>
    <i name="e_wo_entrp">    -10.84913266 </i>
    <i name="e_0_energy">    -10.84913266 </i>
   </energy>
  </scstep>
  <scstep>
   <time name="dav">    0.42    0.42</time>
   <time name="total">    0.45    0.46</time>
   <energy>
    <i name="alphaZ">      3.29363716 </i>
    <i name="ewald">   -226.95539459 </i>
    <i name="hartreedc">    -15.17212232 </i>
    <i name="XCdc">    -18.05962066 </i>
    <i name="pawpsdc">    830.21583660 </i>
    <i name="pawaedc">   -795.23482887 </i>
    <i name="eentropy">     -0.00000000 </i>
    <i name="bandstr">      4.93065729 </i>
    <i name="atom">    206.13270273 </i>
    <i name="e_fr_energy">    -10.84913266 </i>
    <i name="e_wo_entrp">    -10.84913266 </i>
    <i name="e_0_energy">    -10.84913266 </i>
   </energy>
  </scstep>
  <structure>
   <crystal>
    <varray name="basis" >
     <v>      -0.00000000       2.73423759       2.73423759 </v>
     <v>       2.73423759      -0.00000000       2.73423759 </v>
     <v>       2.73423759       2.73423759      -0.00000000 </v>
    </varray>
    <i name="volume">     40.88262211 </i>
    <varray name="rec_basis" >
     <v>      -0.18286633       0.18286633       0.18286633 </v>
     <v>       0.18286633      -0.18286633       0.18286633 </v>
     <v>       0.18286633       0.18286633      -0.18286633 </v>
    </varray>
   </crystal>
   <varray name="positions" >
    <v>      -0.00000000      -0.00000000      -0.00000000 </v>
    <v>       0.25000000       0.25000000       0.25000000 </v>
   </varray>
  </structure>
  <varray name="forces" >
   <v>      -0.00000000      -0.00000000      -0.00000000 </v>
   <v>       0.00000000       0.00000000       0.00000000 </v>
  </varray>
  <varray name="stress" >
   <v>       0.05093156      -0.00000000       0.00000000 </v>
   <v>      -0.00000000       0.05093156       0.00000000 </v>
   <v>      -0.00000000       0.00000000       0.05093156 </v>
  </varray>
  <energy>
   <i name="e_fr_energy">    -10.84913266 </i>
   <i name="e_wo_entrp">    -10.84913266 </i>
   <i name="e_0_energy">    -10.84913266 </i>
  </energy>
  <time name="totalsc">    5.56    5.69</time>
  <eigenvalues>
   <array>
    <dimension dim="1">band</dimension>
    <dimension dim="2">kpoint</dimension>
    <dimension dim="3">spin</dimension>
    <field>eigene</field>
    <field>occ</field>
    <set>
     <set comment="spin 1">
      <set comment="kpoint 1">
       <r>   -6.1980    1.0000 </r>
       <r>    5.6176    1.0000 </r>
       <r>    5.6176    1.0000 </r>
       <r>    5.6176    1.0000 </r>
       <r>    8.1745    0.0000 </r>
       <r>    8.1745    0.0000 </r>
       <r>    8.1745    0.0000 </r>
       <r>    8.7530    0.0000 </r>
      </set>
      <set comment="kpoint 2">
       <r>   -6.0694    1.0000 </r>
       <r>    4.4755    1.0000 </r>
       <r>    5.4238    1.0000 </r>
       <r>    5.4238    1.0000 </r>
       <r>    8.1407    0.0000 </r>
       <r>    8.4603    0.0000 </r>
       <r>    8.4603    0.0000 </r>
       <r>    9.7228    0.0000 </r>
      </set>
      <set comment="kpoint 3">
       <r>   -5.6900    1.0000 </r>
       <r>    2.6356    1.0000 </r>
       <r>    5.0500    1.0000 </r>
       <r>    5.0500    1.0000 </r>
       <r>    7.7706    0.0000 </r>
       <r>    8.9622    0.0000 </r>
       <r>    8.9622    0.0000 </r>
       <r>   11.4973    0.0000 </r>
      </set>
      <set comment="kpoint 4">
       <r>   -5.0866    1.0000 </r>
       <r>    0.8773    1.0000 </r>
       <r>    4.7198    1.0000 </r>
       <r>    4.7198    1.0000 </r>
       <r>    7.4070    0.0000 </r>
       <r>    9.1427    0.0000 </r>
       <r>    9.1427    0.0000 </r>
       <r>   13.1191    0.0000 </r>
      </set>
      <set comment="kpoint 5">
       <r>   -4.3567    1.0000 </r>
       <r>   -0.5710    1.0000 </r>
       <r>    4.5100    1.0000 </r>
       <r>    4.5100    1.0000 </r>
       <r>    7.1671    0.0000 </r>
       <r>    9.0382    0.0000 </r>
       <r>    9.0382    0.0000 </r>
       <r>   13.4232    0.0000 </r>
      </set>
      <set comment="kpoint 6">
       <r>   -3.9190    1.0000 </r>
       <r>   -1.2516    1.0000 </r>
       <r>    4.4391    1.0000 </r>
       <r>    4.4391    1.0000 </r>
       <r>    7.0848    0.0000 </r>
       <r>    8.9670    0.0000 </r>
       <r>    8.9670    0.0000 </r>
       <r>   13.3202    0.0000 </r>
      </set>
      <set comment="kpoint 7">
       <r>   -6.0263    1.0000 </r>
       <r>    4.6621    1.0000 </r>
       <r>    5.0560    1.0000 </r>
       <r>    5.0560    1.0000 </r>
       <r>    7.8027    0.0000 </r>
       <r>    8.9470    0.0000 </r>
       <r>    8.9470    0.0000 </r>
       <r>    9.6075    0.0000 </r>
      </set>
      <set comment="kpoint 8">
       <r>   -5.7292    1.0000 </r>
       <r>    3.1761    1.0000 </r>
       <r>    4.6295    1.0000 </r>
       <r>    4.7875    1.0000 </r>
       <r>    7.8570    0.0000 </r>
       <r>    8.9565    0.0000 </r>
       <r>    9.5908    0.0000 </r>
       <r>   10.5310    0.0000 </r>
      </set>
      <set comment="kpoint 9">
       <r>   -5.1959    1.0000 </r>
       <r>    1.4452    1.0000 </r>
       <r>    4.3152    1.0000 </r>
       <r>    4.3596    1.0000 </r>
       <r>    7.9652    0.0000 </r>
       <r>    8.9596    0.0000 </r>
       <r>    9.8776    0.0000 </r>
       <r>   10.9197    0.0000 </r>
      </set>
      <set comment="kpoint 10">
       <r>   -4.4873    1.0000 </r>
       <r>   -0.0991    1.0000 </r>
       <r>    3.9545    1.0000 </r>
       <r>    4.1687    1.0000 </r>
       <r>    7.8085    0.0000 </r>
       <r>    8.9475    0.0000 </r>
       <r>    9.7139    0.0000 </r>
       <r>   11.9646    0.0000 </r>
      </set>
      <set comment="kpoint 11">
       <r>   -3.8643    1.0000 </r>
       <r>   -1.1122    1.0000 </r>
       <r>    3.6699    1.0000 </r>
       <r>    4.1994    1.0000 </r>
       <r>    7.7151    0.0000 </r>
       <r>    8.9282    0.0000 </r>
       <r>    9.4570    0.0000 </r>
       <r>   13.3580    0.0000 </r>
      </set>
      <set comment="kpoint 12">
       <r>   -4.0263    1.0000 </r>
       <r>   -0.8699    1.0000 </r>
       <r>    3.5460    1.0000 </r>
       <r>    4.3942    1.0000 </r>
       <r>    7.7699    0.0000 </r>
       <r>    9.0624    0.0000 </r>
       <r>    9.3041    0.0000 </r>
       <r>   13.6097    0.0000 </r>
      </set>
      <set comment="kpoint 13">
       <r>   -4.7371    1.0000 </r>
       <r>    0.3853    1.0000 </r>
       <r>    3.6082    1.0000 </r>
       <r>    4.7221    1.0000 </r>
       <r>    7.9693    0.0000 </r>
       <r>    9.2270    0.0000 </r>
       <r>    9.3059    0.0000 </r>
       <r>   12.5489    0.0000 </r>
      </set>
      <set comment="kpoint 14">
       <r>   -5.3994    1.0000 </r>
       <r>    2.0049    1.0000 </r>
       <r>    3.8835    1.0000 </r>
       <r>    5.1207    1.0000 </r>
       <r>    8.2768    0.0000 </r>
       <r>    8.9743    0.0000 </r>
       <r>    9.3014    0.0000 </r>
       <r>   11.4887    0.0000 </r>
      </set>
      <set comment="kpoint 15">
       <r>   -5.8567    1.0000 </r>
       <r>    3.5907    1.0000 </r>
       <r>    4.4864    1.0000 </r>
       <r>    5.4422    1.0000 </r>
       <r>    8.5283    0.0000 </r>
       <r>    8.5296    0.0000 </r>
       <r>    8.7074    0.0000 </r>
       <r>   10.6682    0.0000 </r>
      </set>
      <set comment="kpoint 16">
       <r>   -5.5149    1.0000 </r>
       <r>    2.9830    1.0000 </r>
       <r>    4.1631    1.0000 </r>
       <r>    4.1631    1.0000 </r>
       <r>    7.0938    0.0000 </r>
       <r>    9.4710    0.0000 </r>
       <r>   10.4590    0.0000 </r>
       <r>   10.4590    0.0000 </r>
      </set>
      <set comment="kpoint 17">
       <r>   -5.0577    1.0000 </r>
       <r>    1.7605    1.0000 </r>
       <r>    3.6606    1.0000 </r>
       <r>    3.8207    1.0000 </r>
       <r>    7.1897    0.0000 </r>
       <r>    9.0625    0.0000 </r>
       <r>   10.7092    0.0000 </r>
       <r>   11.0473    0.0000 </r>
      </set>
      <set comment="kpoint 18">
       <r>   -4.3958    1.0000 </r>
       <r>    0.3539    1.0000 </r>
       <r>    3.0405    1.0000 </r>
       <r>    3.6629    1.0000 </r>
       <r>    7.4045    0.0000 </r>
       <r>    9.6875    0.0000 </r>
       <r>   10.4786    0.0000 </r>
       <r>   11.0138    0.0000 </r>
      </set>
      <set comment="kpoint 19">
       <r>   -3.6827    1.0000 </r>
       <r>   -0.8026    1.0000 </r>
       <r>    2.5391    1.0000 </r>
       <r>    3.7048    1.0000 </r>
       <r>    7.4682    0.0000 </r>
       <r>   10.2597    0.0000 </r>
       <r>   10.6964    0.0000 </r>
       <r>   11.2134    0.0000 </r>
      </set>
      <set comment="kpoint 20">
       <r>   -3.5348    1.0000 </r>
       <r>   -1.0046    1.0000 </r>
       <r>    2.2479    1.0000 </r>
       <r>    3.9376    1.0000 </r>
       <r>    7.6761    0.0000 </r>
       <r>   10.1648    0.0000 </r>
       <r>   10.3982    0.0000 </r>
       <r>   13.1127    0.0000 </r>
      </set>
      <set comment="kpoint 21">
       <r>   -4.1715    1.0000 </r>
       <r>   -0.0426    1.0000 </r>
       <r>    2.2332    1.0000 </r>
       <r>    4.3263    1.0000 </r>
       <r>    8.0582    0.0000 </r>
       <r>   10.1222    0.0000 </r>
       <r>   10.1797    0.0000 </r>
       <r>   12.2359    0.0000 </r>
      </set>
      <set comment="kpoint 22">
       <r>   -4.8743    1.0000 </r>
       <r>    1.1709    1.0000 </r>
       <r>    2.6839    1.0000 </r>
       <r>    4.7865    1.0000 </r>
       <r>    8.4688    0.0000 </r>
       <r>    9.5833    0.0000 </r>
       <r>    9.8874    0.0000 </r>
       <r>   11.2751    0.0000 </r>
      </set>
      <set comment="kpoint 23">
       <r>   -4.6764    1.0000 </r>
       <r>    1.2134    1.0000 </r>
       <r>    3.4351    1.0000 </r>
       <r>    3.4351    1.0000 </r>
       <r>    6.5069    0.0000 </r>
       <r>    8.0538    0.0000 </r>
       <r>   12.1894    0.0000 </r>
       <r>   12.1894    0.0000 </r>
      </set>
      <set comment="kpoint 24">
       <r>   -4.0752    1.0000 </r>
       <r>    0.2248    1.0000 </r>
       <r>    2.8237    1.0000 </r>
       <r>    3.2335    1.0000 </r>
       <r>    6.6944    0.0000 </r>
       <r>    7.8832    0.0000 </r>
       <r>   12.4735    0.0000 </r>
       <r>   12.6138    0.0000 </r>
      </set>
      <set comment="kpoint 25">
       <r>   -3.3412    1.0000 </r>
       <r>   -0.7610    1.0000 </r>
       <r>    2.0139    1.0000 </r>
       <r>    3.2393    1.0000 </r>
       <r>    6.8756    0.0000 </r>
       <r>    8.9939    0.0000 </r>
       <r>   12.2879    0.0000 </r>
       <r>   12.3756    0.0000 </r>
      </set>
      <set comment="kpoint 26">
       <r>   -2.9352    1.0000 </r>
       <r>   -1.2230    1.0000 </r>
       <r>    1.4731    1.0000 </r>
       <r>    3.4502    1.0000 </r>
       <r>    7.1037    0.0000 </r>
       <r>   10.7788    0.0000 </r>
       <r>   11.9802    0.0000 </r>
       <r>   12.1277    0.0000 </r>
      </set>
      <set comment="kpoint 27">
       <r>   -3.4608    1.0000 </r>
       <r>   -0.6453    1.0000 </r>
       <r>    1.4487    1.0000 </r>
       <r>    3.8382    1.0000 </r>
       <r>    7.5361    0.0000 </r>
       <r>   11.3120    0.0000 </r>
       <r>   11.6230    0.0000 </r>
       <r>   12.3454    0.0000 </r>
      </set>
      <set comment="kpoint 28">
       <r>   -3.5347    1.0000 </r>
       <r>   -0.5198    1.0000 </r>
       <r>    2.9781    1.0000 </r>
       <r>    2.9781    1.0000 </r>
       <r>    6.2353    0.0000 </r>
       <r>    6.9669    0.0000 </r>
       <r>   14.0188    0.0000 </r>
       <r>   14.0188    0.0000 </r>
      </set>
      <set comment="kpoint 29">
       <r>   -2.8200    1.0000 </r>
       <r>   -1.3460    1.0000 </r>
       <r>    2.4090    1.0000 </r>
       <r>    2.9301    1.0000 </r>
       <r>    6.4711    0.0000 </r>
       <r>    7.2164    0.0000 </r>
       <r>   14.2681    0.0000 </r>
       <r>   14.3452    0.0000 </r>
      </set>
      <set comment="kpoint 30">
       <r>   -2.3591    1.0000 </r>
       <r>   -1.7559    1.0000 </r>
       <r>    1.6479    1.0000 </r>
       <r>    3.0939    1.0000 </r>
       <r>    6.6812    0.0000 </r>
       <r>    8.7665    0.0000 </r>
       <r>   13.6151    0.0000 </r>
       <r>   14.1902    0.0000 </r>
      </set>
      <set comment="kpoint 31">
       <r>   -2.1291    1.0000 </r>
       <r>   -2.1291    1.0000 </r>
       <r>    2.8231    1.0000 </r>
       <r>    2.8231    1.0000 </r>
       <r>    6.3690    0.0000 </r>
       <r>    6.3690    0.0000 </r>
       <r>   15.5553    0.0000 </r>
       <r>   15.5553    0.0000 </r>
      </set>
      <set comment="kpoint 32">
       <r>   -5.3528    1.0000 </r>
       <r>    2.2560    1.0000 </r>
       <r>    3.5845    1.0000 </r>
       <r>    4.6621    1.0000 </r>
       <r>    7.9626    0.0000 </r>
       <r>    9.2672    0.0000 </r>
       <r>   10.2159    0.0000 </r>
       <r>   10.2368    0.0000 </r>
      </set>
      <set comment="kpoint 33">
       <r>   -4.7532    1.0000 </r>
       <r>    0.8734    1.0000 </r>
       <r>    3.0008    1.0000 </r>
       <r>    4.2964    1.0000 </r>
       <r>    8.3027    0.0000 </r>
       <r>    9.1848    0.0000 </r>
       <r>   10.3095    0.0000 </r>
       <r>   10.7022    0.0000 </r>
      </set>
      <set comment="kpoint 34">
       <r>   -4.0232    1.0000 </r>
       <r>   -0.4597    1.0000 </r>
       <r>    2.7669    1.0000 </r>
       <r>    3.9556    1.0000 </r>
       <r>    8.3412    0.0000 </r>
       <r>    8.8954    0.0000 </r>
       <r>   10.6292    0.0000 </r>
       <r>   11.6305    0.0000 </r>
      </set>
      <set comment="kpoint 35">
       <r>   -3.5777    1.0000 </r>
       <r>   -1.1194    1.0000 </r>
       <r>    2.7057    1.0000 </r>
       <r>    3.8217    1.0000 </r>
       <r>    8.3539    0.0000 </r>
       <r>    8.7317    0.0000 </r>
       <r>   10.5923    0.0000 </r>
       <r>   13.3488    0.0000 </r>
      </set>
      <set comment="kpoint 36">
       <r>   -4.5300    1.0000 </r>
       <r>    0.8674    1.0000 </r>
       <r>    2.8715    1.0000 </r>
       <r>    3.5765    1.0000 </r>
       <r>    7.4042    0.0000 </r>
       <r>    8.6841    0.0000 </r>
       <r>   10.7586    0.0000 </r>
       <r>   12.0821    0.0000 </r>
      </set>
      <set comment="kpoint 37">
       <r>   -3.8247    1.0000 </r>
       <r>   -0.2130    1.0000 </r>
       <r>    2.2629    1.0000 </r>
       <r>    3.2571    1.0000 </r>
       <r>    7.7848    0.0000 </r>
       <r>    9.3705    0.0000 </r>
       <r>   10.3845    0.0000 </r>
       <r>   12.4736    0.0000 </r>
      </set>
      <set comment="kpoint 38">
       <r>   -3.1918    1.0000 </r>
       <r>   -1.0531    1.0000 </r>
       <r>    1.8606    1.0000 </r>
       <r>    3.2029    1.0000 </r>
       <r>    7.9646    0.0000 </r>
       <r>    9.9573    0.0000 </r>
       <r>   11.0805    0.0000 </r>
       <r>   12.4017    0.0000 </r>
      </set>
      <set comment="kpoint 39">
       <r>   -3.3881    1.0000 </r>
       <r>   -0.8006    1.0000 </r>
       <r>    1.7160    1.0000 </r>
       <r>    3.4367    1.0000 </r>
       <r>    8.2982    0.0000 </r>
       <r>    9.7028    0.0000 </r>
       <r>   11.5098    0.0000 </r>
       <r>   12.2867    0.0000 </r>
      </set>
      <set comment="kpoint 40">
       <r>   -4.1064    1.0000 </r>
       <r>    0.1285    1.0000 </r>
       <r>    2.0141    1.0000 </r>
       <r>    3.8659    1.0000 </r>
       <r>    8.7772    0.0000 </r>
       <r>    9.2557    0.0000 </r>
       <r>   10.3027    0.0000 </r>
       <r>   11.8106    0.0000 </r>
      </set>
      <set comment="kpoint 41">
       <r>   -3.4197    1.0000 </r>
       <r>   -0.6050    1.0000 </r>
       <r>    2.4689    1.0000 </r>
       <r>    2.7900    1.0000 </r>
       <r>    7.1207    0.0000 </r>
       <r>    7.7140    0.0000 </r>
       <r>   12.2916    0.0000 </r>
       <r>   14.0050    0.0000 </r>
      </set>
      <set comment="kpoint 42">
       <r>   -2.6983    1.0000 </r>
       <r>   -1.3658    1.0000 </r>
       <r>    1.7870    1.0000 </r>
       <r>    2.7009    1.0000 </r>
       <r>    7.4710    0.0000 </r>
       <r>    8.8957    0.0000 </r>
       <r>   11.8973    0.0000 </r>
       <r>   13.6533    0.0000 </r>
      </set>
      <set comment="kpoint 43">
       <r>   -2.7075    1.0000 </r>
       <r>   -1.3363    1.0000 </r>
       <r>    1.3817    1.0000 </r>
       <r>    2.9644    1.0000 </r>
       <r>    7.7924    0.0000 </r>
       <r>   10.7132    0.0000 </r>
       <r>   11.4954    0.0000 </r>
       <r>   11.8338    0.0000 </r>
      </set>
      <set comment="kpoint 44">
       <r>   -2.0788    1.0000 </r>
       <r>   -2.0788    1.0000 </r>
       <r>    2.4280    1.0000 </r>
       <r>    2.4280    1.0000 </r>
       <r>    7.2037    0.0000 </r>
       <r>    7.2037    0.0000 </r>
       <r>   14.0051    0.0000 </r>
       <r>   14.0051    0.0000 </r>
      </set>
      <set comment="kpoint 45">
       <r>   -3.1082    1.0000 </r>
       <r>   -0.8970    1.0000 </r>
       <r>    1.7281    1.0000 </r>
       <r>    2.6953    1.0000 </r>
       <r>    9.0003    0.0000 </r>
       <r>    9.3973    0.0000 </r>
       <r>    9.9896    0.0000 </r>
       <r>   13.3214    0.0000 </r>
      </set>
      <set comment="kpoint 46">
       <r>   -2.6096    1.0000 </r>
       <r>   -1.3964    1.0000 </r>
       <r>    1.5749    1.0000 </r>
       <r>    2.4503    1.0000 </r>
       <r>    9.2935    0.0000 </r>
       <r>    9.5702    0.0000 </r>
       <r>   10.9800    0.0000 </r>
       <r>   11.3863    0.0000 </r>
      </set>
      <set comment="kpoint 47">
       <r>   -1.9905    1.0000 </r>
       <r>   -1.9905    1.0000 </r>
       <r>    1.9309    1.0000 </r>
       <r>    1.9309    1.0000 </r>
       <r>    9.0432    0.0000 </r>
       <r>    9.0432    0.0000 </r>
       <r>   11.4800    0.0000 </r>
       <r>   11.4800    0.0000 </r>
      </set>
     </set>
    </set>
   </array>
  </eigenvalues>
  <separator name="orbital magnetization" >
   <v name="MAGDIPOLOUT">      0.00000000      0.00000000      0.00000000</v>
  </separator>
  <dos>
   <i name="efermi">      5.79656606 </i>
   <total>
    <array>
     <dimension dim="1">gridpoints</dimension>
     <dimension dim="2">spin</dimension>
     <field>energy</field>
     <field>total</field>
     <field>integrated</field>
     <set>
      <set comment="spin 1">
       <r>    -7.2857     0.0000     0.0000 </r>
       <r>    -7.2059     0.0000     0.0000 </r>
       <r>    -7.1262     0.0000     0.0000 </r>
       <r>    -7.0464     0.0000     0.0000 </r>
       <r>    -6.9666     0.0000     0.0000 </r>
       <r>    -6.8869     0.0000     0.0000 </r>
       <r>    -6.8071     0.0000     0.0000 </r>
       <r>    -6.7274     0.0000     0.0000 </r>
       <r>    -6.6476     0.0000     0.0000 </r>
       <r>    -6.5678     0.0000     0.0000 </r>
       <r>    -6.4881     0.0000     0.0000 </r>
       <r>    -6.4083     0.0000     0.0000 </r>
       <r>    -6.3285     0.0000     0.0000 </r>
       <r>    -6.2488     0.0002     0.0000 </r>
       <r>    -6.1690     0.0227     0.0018 </r>
       <r>    -6.0893     0.0375     0.0048 </r>
       <r>    -6.0095     0.2830     0.0274 </r>
       <r>    -5.9297     0.0328     0.0300 </r>
       <r>    -5.8500     0.1880     0.0450 </r>
       <r>    -5.7702     0.1289     0.0553 </r>
       <r>    -5.6905     0.6639     0.1082 </r>
       <r>    -5.6107     0.1224     0.1180 </r>
       <r>    -5.5309     0.0339     0.1207 </r>
       <r>    -5.4512     0.1208     0.1303 </r>
       <r>    -5.3714     0.6557     0.1826 </r>
       <r>    -5.2916     0.5425     0.2259 </r>
       <r>    -5.2119     0.1368     0.2368 </r>
       <r>    -5.1321     0.4687     0.2742 </r>
       <r>    -5.0524     0.5480     0.3179 </r>
       <r>    -4.9726     0.2519     0.3380 </r>
       <r>    -4.8928     0.0576     0.3426 </r>
       <r>    -4.8131     0.2457     0.3622 </r>
       <r>    -4.7333     1.3358     0.4687 </r>
       <r>    -4.6535     0.5965     0.5163 </r>
       <r>    -4.5738     0.0330     0.5189 </r>
       <r>    -4.4940     0.7891     0.5819 </r>
       <r>    -4.4143     0.5190     0.6233 </r>
       <r>    -4.3345     0.6553     0.6755 </r>
       <r>    -4.2547     0.0308     0.6780 </r>
       <r>    -4.1750     0.2618     0.6989 </r>
       <r>    -4.0952     0.8665     0.7680 </r>
       <r>    -4.0154     1.8668     0.9169 </r>
       <r>    -3.9357     0.6374     0.9677 </r>
       <r>    -3.8559     0.5564     1.0121 </r>
       <r>    -3.7762     1.3141     1.1169 </r>
       <r>    -3.6964     0.1689     1.1304 </r>
       <r>    -3.6166     0.4657     1.1676 </r>
       <r>    -3.5369     0.9130     1.2404 </r>
       <r>    -3.4571     0.6167     1.2896 </r>
       <r>    -3.3773     1.5555     1.4136 </r>
       <r>    -3.2976     0.9454     1.4890 </r>
       <r>    -3.2178     0.1440     1.5005 </r>
       <r>    -3.1381     1.1124     1.5893 </r>
       <r>    -3.0583     0.5552     1.6335 </r>
       <r>    -2.9785     0.0180     1.6350 </r>
       <r>    -2.8988     0.5636     1.6799 </r>
       <r>    -2.8190     0.3376     1.7069 </r>
       <r>    -2.7392     0.3626     1.7358 </r>
       <r>    -2.6595     1.6908     1.8706 </r>
       <r>    -2.5797     0.5961     1.9182 </r>
       <r>    -2.5000     0.0477     1.9220 </r>
       <r>    -2.4202     0.0006     1.9220 </r>
       <r>    -2.3404     0.2435     1.9415 </r>
       <r>    -2.2607     0.0568     1.9460 </r>
       <r>    -2.1809     0.0011     1.9461 </r>
       <r>    -2.1011     0.2228     1.9639 </r>
       <r>    -2.0214     0.5699     2.0093 </r>
       <r>    -1.9416     0.5538     2.0535 </r>
       <r>    -1.8619     0.0064     2.0540 </r>
       <r>    -1.7821     0.0327     2.0566 </r>
       <r>    -1.7023     0.2665     2.0779 </r>
       <r>    -1.6226     0.0017     2.0780 </r>
       <r>    -1.5428     0.0000     2.0780 </r>
       <r>    -1.4630     0.0005     2.0780 </r>
       <r>    -1.3833     0.7184     2.1353 </r>
       <r>    -1.3035     2.2384     2.3139 </r>
       <r>    -1.2238     0.4349     2.3486 </r>
       <r>    -1.1440     0.4330     2.3831 </r>
       <r>    -1.0642     1.4409     2.4980 </r>
       <r>    -0.9845     1.3498     2.6057 </r>
       <r>    -0.9047     0.3501     2.6336 </r>
       <r>    -0.8250     1.1864     2.7283 </r>
       <r>    -0.7452     2.0335     2.8905 </r>
       <r>    -0.6654     0.1975     2.9062 </r>
       <r>    -0.5857     0.7895     2.9692 </r>
       <r>    -0.5059     0.3902     3.0003 </r>
       <r>    -0.4261     1.1562     3.0925 </r>
       <r>    -0.3464     0.0685     3.0980 </r>
       <r>    -0.2666     0.0069     3.0985 </r>
       <r>    -0.1869     1.0654     3.1835 </r>
       <r>    -0.1071     0.3443     3.2110 </r>
       <r>    -0.0273     0.8483     3.2787 </r>
       <r>     0.0524     0.1424     3.2900 </r>
       <r>     0.1322     0.3428     3.3173 </r>
       <r>     0.2120     0.4231     3.3511 </r>
       <r>     0.2917     0.4381     3.3860 </r>
       <r>     0.3715     0.6336     3.4366 </r>
       <r>     0.4512     0.5688     3.4820 </r>
       <r>     0.5310     0.0006     3.4820 </r>
       <r>     0.6108     0.0000     3.4820 </r>
       <r>     0.6905     0.0000     3.4820 </r>
       <r>     0.7703     0.0000     3.4820 </r>
       <r>     0.8501     0.3070     3.5065 </r>
       <r>     0.9298     1.6919     3.6414 </r>
       <r>     1.0096     0.0070     3.6420 </r>
       <r>     1.0893     0.0000     3.6420 </r>
       <r>     1.1691     0.1430     3.6534 </r>
       <r>     1.2489     0.3011     3.6774 </r>
       <r>     1.3286     0.0109     3.6783 </r>
       <r>     1.4084     0.5694     3.7237 </r>
       <r>     1.4882     1.3666     3.8327 </r>
       <r>     1.5679     0.3901     3.8638 </r>
       <r>     1.6477     0.5278     3.9059 </r>
       <r>     1.7274     1.3318     4.0122 </r>
       <r>     1.8072     2.2240     4.1896 </r>
       <r>     1.8870     1.2919     4.2926 </r>
       <r>     1.9667     0.7293     4.3508 </r>
       <r>     2.0465     1.7053     4.4868 </r>
       <r>     2.1263     0.0903     4.4940 </r>
       <r>     2.2060     0.0848     4.5008 </r>
       <r>     2.2858     2.6810     4.7146 </r>
       <r>     2.3655     0.2562     4.7351 </r>
       <r>     2.4453     1.3644     4.8439 </r>
       <r>     2.5251     1.1799     4.9380 </r>
       <r>     2.6048     0.4657     4.9751 </r>
       <r>     2.6846     0.8855     5.0458 </r>
       <r>     2.7644     2.6186     5.2546 </r>
       <r>     2.8441     1.8779     5.4044 </r>
       <r>     2.9239     0.9183     5.4777 </r>
       <r>     3.0036     2.0211     5.6389 </r>
       <r>     3.0834     1.2728     5.7404 </r>
       <r>     3.1632     0.4213     5.7740 </r>
       <r>     3.2429     2.6173     5.9828 </r>
       <r>     3.3227     1.3935     6.0939 </r>
       <r>     3.4025     0.0912     6.1012 </r>
       <r>     3.4822     1.9545     6.2571 </r>
       <r>     3.5620     0.7992     6.3208 </r>
       <r>     3.6417     2.1961     6.4960 </r>
       <r>     3.7215     2.0441     6.6590 </r>
       <r>     3.8013     0.3599     6.6877 </r>
       <r>     3.8810     2.0072     6.8478 </r>
       <r>     3.9608     2.0879     7.0144 </r>
       <r>     4.0405     0.7977     7.0780 </r>
       <r>     4.1203     0.0135     7.0791 </r>
       <r>     4.2001     1.1436     7.1703 </r>
       <r>     4.2798     0.6460     7.2218 </r>
       <r>     4.3596     2.3921     7.4126 </r>
       <r>     4.4394     1.0245     7.4943 </r>
       <r>     4.5191     0.8429     7.5616 </r>
       <r>     4.5989     0.2021     7.5777 </r>
       <r>     4.6786     1.1604     7.6702 </r>
       <r>     4.7584     1.1895     7.7651 </r>
       <r>     4.8382     0.8564     7.8334 </r>
       <r>     4.9179     0.0073     7.8340 </r>
       <r>     4.9977     0.0037     7.8343 </r>
       <r>     5.0775     0.6249     7.8841 </r>
       <r>     5.1572     0.6497     7.9360 </r>
       <r>     5.2370     0.0256     7.9380 </r>
       <r>     5.3167     0.0000     7.9380 </r>
       <r>     5.3965     0.0446     7.9416 </r>
       <r>     5.4763     0.6385     7.9925 </r>
       <r>     5.5560     0.0191     7.9940 </r>
       <r>     5.6358     0.0604     7.9988 </r>
       <r>     5.7156     0.0147     8.0000 </r>
       <r>     5.7953     0.0000     8.0000 </r>
       <r>     5.8751     0.0000     8.0000 </r>
       <r>     5.9548     0.0000     8.0000 </r>
       <r>     6.0346     0.0000     8.0000 </r>
       <r>     6.1144     0.0000     8.0000 </r>
       <r>     6.1941     0.0040     8.0003 </r>
       <r>     6.2739     0.1413     8.0116 </r>
       <r>     6.3537     0.0405     8.0148 </r>
       <r>     6.4334     0.1378     8.0258 </r>
       <r>     6.5132     0.6575     8.0783 </r>
       <r>     6.5929     0.0720     8.0840 </r>
       <r>     6.6727     0.1961     8.0996 </r>
       <r>     6.7525     0.7046     8.1558 </r>
       <r>     6.8322     0.0142     8.1570 </r>
       <r>     6.9120     0.5642     8.2020 </r>
       <r>     6.9918     0.1577     8.2146 </r>
       <r>     7.0715     0.1118     8.2235 </r>
       <r>     7.1513     1.3788     8.3335 </r>
       <r>     7.2310     1.7648     8.4742 </r>
       <r>     7.3108     0.2230     8.4920 </r>
       <r>     7.3906     0.3539     8.5202 </r>
       <r>     7.4703     1.9609     8.6766 </r>
       <r>     7.5501     1.1187     8.7659 </r>
       <r>     7.6299     0.0857     8.7727 </r>
       <r>     7.7096     1.0518     8.8566 </r>
       <r>     7.7894     2.5244     9.0580 </r>
       <r>     7.8691     2.1622     9.2304 </r>
       <r>     7.9489     1.2870     9.3331 </r>
       <r>     8.0287     2.4062     9.5250 </r>
       <r>     8.1084     0.6964     9.5805 </r>
       <r>     8.1882     0.2471     9.6002 </r>
       <r>     8.2680     0.3794     9.6305 </r>
       <r>     8.3477     3.5982     9.9175 </r>
       <r>     8.4275     0.8908     9.9886 </r>
       <r>     8.5072     0.7461    10.0481 </r>
       <r>     8.5870     0.5239    10.0898 </r>
       <r>     8.6668     0.1353    10.1006 </r>
       <r>     8.7465     1.3210    10.2060 </r>
       <r>     8.8263     0.9722    10.2836 </r>
       <r>     8.9060     1.7910    10.4264 </r>
       <r>     8.9858     4.4825    10.7839 </r>
       <r>     9.0656     2.8011    11.0074 </r>
       <r>     9.1453     0.9181    11.0806 </r>
       <r>     9.2251     1.6504    11.2122 </r>
       <r>     9.3049     2.8361    11.4384 </r>
       <r>     9.3846     2.1373    11.6089 </r>
       <r>     9.4644     1.1793    11.7030 </r>
       <r>     9.5441     0.3979    11.7347 </r>
       <r>     9.6239     1.4911    11.8537 </r>
       <r>     9.7037     1.3949    11.9649 </r>
       <r>     9.7834     1.2915    12.0679 </r>
       <r>     9.8632     0.1883    12.0830 </r>
       <r>     9.9430     1.0222    12.1645 </r>
       <r>    10.0227     1.4616    12.2811 </r>
       <r>    10.1025     0.1437    12.2925 </r>
       <r>    10.1822     1.3386    12.3993 </r>
       <r>    10.2620     1.8429    12.5463 </r>
       <r>    10.3418     2.0592    12.7105 </r>
       <r>    10.4215     1.7573    12.8507 </r>
       <r>    10.5013     0.9753    12.9285 </r>
       <r>    10.5811     0.8331    12.9949 </r>
       <r>    10.6608     1.7147    13.1317 </r>
       <r>    10.7406     3.1988    13.3869 </r>
       <r>    10.8203     1.2018    13.4827 </r>
       <r>    10.9001     0.1230    13.4925 </r>
       <r>    10.9799     0.8268    13.5585 </r>
       <r>    11.0596     1.4906    13.6774 </r>
       <r>    11.1394     1.1833    13.7717 </r>
       <r>    11.2192     0.3694    13.8012 </r>
       <r>    11.2989     0.5781    13.8473 </r>
       <r>    11.3787     0.4754    13.8852 </r>
       <r>    11.4584     0.5657    13.9304 </r>
       <r>    11.5382     2.8946    14.1612 </r>
       <r>    11.6180     0.5902    14.2083 </r>
       <r>    11.6977     1.0482    14.2919 </r>
       <r>    11.7775     0.0391    14.2950 </r>
       <r>    11.8573     1.1116    14.3837 </r>
       <r>    11.9370     1.2913    14.4867 </r>
       <r>    12.0168     1.1406    14.5777 </r>
       <r>    12.0965     0.5245    14.6195 </r>
       <r>    12.1763     0.7840    14.6820 </r>
       <r>    12.2561     0.8816    14.7524 </r>
       <r>    12.3358     2.4390    14.9469 </r>
       <r>    12.4156     1.6992    15.0824 </r>
       <r>    12.4954     1.8548    15.2304 </r>
       <r>    12.5751     0.8279    15.2964 </r>
       <r>    12.6549     0.6308    15.3467 </r>
       <r>    12.7346     0.0159    15.3480 </r>
       <r>    12.8144     0.0000    15.3480 </r>
       <r>    12.8942     0.0000    15.3480 </r>
       <r>    12.9739     0.0000    15.3480 </r>
       <r>    13.0537     0.0018    15.3481 </r>
       <r>    13.1335     0.6518    15.4001 </r>
       <r>    13.2132     0.1488    15.4120 </r>
       <r>    13.2930     0.0676    15.4174 </r>
       <r>    13.3727     1.6099    15.5458 </r>
       <r>    13.4525     0.4120    15.5787 </r>
       <r>    13.5323     0.0168    15.5800 </r>
       <r>    13.6120     0.4915    15.6192 </r>
       <r>    13.6918     1.5727    15.7446 </r>
       <r>    13.7715     0.0420    15.7480 </r>
       <r>    13.8513     0.0000    15.7480 </r>
       <r>    13.9311     0.0003    15.7480 </r>
       <r>    14.0108     0.8374    15.8148 </r>
       <r>    14.0906     0.6666    15.8680 </r>
       <r>    14.1704     0.0527    15.8722 </r>
       <r>    14.2501     0.3668    15.9014 </r>
       <r>    14.3299     0.6240    15.9512 </r>
       <r>    14.4096     0.4603    15.9879 </r>
       <r>    14.4894     0.0007    15.9880 </r>
       <r>    14.5692     0.0000    15.9880 </r>
       <r>    14.6489     0.0000    15.9880 </r>
       <r>    14.7287     0.0000    15.9880 </r>
       <r>    14.8085     0.0000    15.9880 </r>
       <r>    14.8882     0.0000    15.9880 </r>
       <r>    14.9680     0.0000    15.9880 </r>
       <r>    15.0477     0.0000    15.9880 </r>
       <r>    15.1275     0.0000    15.9880 </r>
       <r>    15.2073     0.0000    15.9880 </r>
       <r>    15.2870     0.0000    15.9880 </r>
       <r>    15.3668     0.0000    15.9880 </r>
       <r>    15.4466     0.0000    15.9880 </r>
       <r>    15.5263     0.0129    15.9890 </r>
       <r>    15.6061     0.1363    15.9999 </r>
       <r>    15.6858     0.0013    16.0000 </r>
       <r>    15.7656     0.0000    16.0000 </r>
       <r>    15.8454     0.0000    16.0000 </r>
       <r>    15.9251     0.0000    16.0000 </r>
       <r>    16.0049     0.0000    16.0000 </r>
       <r>    16.0847     0.0000    16.0000 </r>
       <r>    16.1644     0.0000    16.0000 </r>
       <r>    16.2442     0.0000    16.0000 </r>
       <r>    16.3239     0.0000    16.0000 </r>
       <r>    16.4037     0.0000    16.0000 </r>
       <r>    16.4835     0.0000    16.0000 </r>
       <r>    16.5632     0.0000    16.0000 </r>
       <r>    16.6430     0.0000    16.0000 </r>
      </set>
     </set>
    </array>
   </total>
  </dos>
 </calculation>
 <structure name="finalpos" >
  <crystal>
   <varray name="basis" >
    <v>      -0.00000000       2.73423759       2.73423759 </v>
    <v>       2.73423759      -0.00000000       2.73423759 </v>
    <v>       2.73423759       2.73423759      -0.00000000 </v>
   </varray>
   <i name="volume">     40.88262211 </i>
   <varray name="rec_basis" >
    <v>      -0.18286633       0.18286633       0.18286633 </v>
    <v>       0.18286633      -0.18286633       0.18286633 </v>
    <v>       0.18286633       0.18286633      -0.18286633 </v>
   </varray>
  </crystal>
  <varray name="positions" >
   <v>      -0.00000000      -0.00000000      -0.00000000 </v>
   <v>       0.25000000       0.25000000       0.25000000 </v>
  </varray>
 </structure>
</modeling>
