Si FCC                                  
           1
     0.000000    2.715250    2.715250
     2.715250    0.000000    2.715250
     2.715250    2.715250    0.000000
   Si
     2
Direct configuration=     1
   0.00000000  0.00000000  0.00000000
   0.25000000  0.25000000  0.25000000
Si FCC                                  
           1
    -0.000000    2.747190    2.747190
     2.747190   -0.000000    2.747190
     2.747190    2.747190   -0.000000
   Si
     2
Direct configuration=     2
  -0.00000000 -0.00000000 -0.00000000
   0.25000000  0.25000000  0.25000000
Si FCC                                  
           1
    -0.000000    2.734238    2.734238
     2.734238   -0.000000    2.734238
     2.734238    2.734238   -0.000000
   Si
     2
Direct configuration=     3
  -0.00000000 -0.00000000 -0.00000000
   0.25000000  0.25000000  0.25000000
