Cu FCC                                  
   1.00000000000000     
     0.000000    1.818410    1.818410
     1.818410    0.000000    1.818410
     1.818410    1.818410    0.000000
  Cu/0e71e558f37
               1
Direct
  0.000000  0.000000  0.000000
 
   40   40   40
  211.72      207.74      196.19      178.28      155.74      130.63      104.99      80.631      58.973      40.943    
  26.979      17.050      10.714      7.2029      5.5409      4.6955      4.0588      3.5971      3.2956      3.1289    
  3.0759      3.1289      3.2956      3.5971      4.0588      4.6955      5.5409      7.2029      10.714      17.050    
  26.979      40.943      58.973      80.631      104.99      130.63      155.74      178.28      196.19      207.74    
  207.74      199.97      185.25      165.06      141.29      116.01      91.150      68.317      48.675      32.897    
  21.177      13.269      8.5583      6.1598      5.0535      4.3371      3.7927      3.4174      3.1886      3.0817    
  3.0817      3.1886      3.4174      3.7927      4.3371      5.0535      6.1598      8.5583      13.269      21.177    
  32.897      48.675      68.317      91.150      116.01      141.29      165.06      185.25      199.97      207.74    
  196.19      185.25      168.27      146.92      123.12      98.838      75.794      55.335      38.349      25.248    
  15.990      10.136      6.9307      5.4209      4.6142      3.9960      3.5497      3.2591      3.0985      3.0475    
  3.0985      3.2591      3.5497      3.9960      4.6142      5.4209      6.9307      10.136      15.990      25.248    
  38.349      55.335      75.794      98.838      123.12      146.92      168.27      185.25      196.19      199.97    
  178.28      165.06      146.92      125.58      102.90      80.628      60.227      42.755      28.817      18.574    
  11.770      7.8035      5.8267      4.8754      4.1971      3.6866      3.3370      3.1245      3.0254      3.0254    
  3.1245      3.3370      3.6866      4.1971      4.8754      5.8267      7.8035      11.770      18.574      28.817    
  42.755      60.227      80.628      102.90      125.58      146.92      165.06      178.28      185.25      185.25    
  155.74      141.29      123.12      102.90      82.301      62.819      45.621      31.470      20.706      13.254    
  8.6768      6.2570      5.1095      4.3849      3.8208      3.4179      3.1572      3.0136      2.9681      3.0136    
  3.1572      3.4179      3.8208      4.3849      5.1095      6.2570      8.6768      13.254      20.706      31.470    
  45.621      62.819      82.301      102.90      123.12      141.29      155.74      165.06      168.27      165.06    
  130.63      116.01      98.838      80.628      62.819      46.615      32.885      22.110      14.382      9.4252    
  6.6636      5.3178      4.5491      3.9442      3.4968      3.1932      3.0098      2.9243      2.9243      3.0098    
  3.1932      3.4968      3.9442      4.5491      5.3178      6.6636      9.4252      14.382      22.110      32.885    
  46.615      62.819      80.628      98.838      116.01      130.63      141.29      146.92      146.92      141.29    
  104.99      91.150      75.794      60.227      45.621      32.885      22.601      14.992      9.9305      6.9833    
  5.4904      4.6804      4.0494      3.5680      3.2291      3.0112      2.8915      2.8536      2.8915      3.0112    
  3.2291      3.5680      4.0494      4.6804      5.4904      6.9833      9.9305      14.992      22.601      32.885    
  45.621      60.227      75.794      91.150      104.99      116.01      123.12      125.58      123.12      116.01    
  80.631      68.317      55.335      42.755      31.470      22.110      14.992      10.109      7.1597      5.6065    
  4.7719      4.1296      3.6267      3.2612      3.0155      2.8674      2.7985      2.7985      2.8674      3.0155    
  3.2612      3.6267      4.1296      4.7719      5.6065      7.1597      10.109      14.992      22.110      31.470    
  42.755      55.335      68.317      80.631      91.150      98.838      102.90      102.90      98.838      91.150    
  58.973      48.675      38.349      28.817      20.706      14.382      9.9305      7.1597      5.6476      4.8188    
  4.1799      3.6684      3.2866      3.0206      2.8501      2.7564      2.7266      2.7564      2.8501      3.0206    
  3.2866      3.6684      4.1799      4.8188      5.6476      7.1597      9.9305      14.382      20.706      28.817    
  38.349      48.675      58.973      68.317      75.794      80.628      82.301      80.628      75.794      68.317    
  40.943      32.897      25.248      18.574      13.254      9.4252      6.9833      5.6065      4.8188      4.1970    
  3.6900      3.3029      3.0249      2.8384      2.7256      2.6729      2.6729      2.7256      2.8384      3.0249    
  3.3029      3.6900      4.1970      4.8188      5.6065      6.9833      9.4252      13.254      18.574      25.248    
  32.897      40.943      48.675      55.335      60.227      62.819      62.819      60.227      55.335      48.675    
  26.979      21.177      15.990      11.770      8.6768      6.6636      5.4904      4.7719      4.1799      3.6900    
  3.3085      3.0273      2.8316      2.7054      2.6353      2.6129      2.6353      2.7054      2.8316      3.0273    
  3.3085      3.6900      4.1799      4.7719      5.4904      6.6636      8.6768      11.770      15.990      21.177    
  26.979      32.897      38.349      42.755      45.621      46.615      45.621      42.755      38.349      32.897    
  17.050      13.269      10.136      7.8035      6.2570      5.3178      4.6804      4.1296      3.6684      3.3029    
  3.0273      2.8294      2.6953      2.6130      2.5741      2.5741      2.6130      2.6953      2.8294      3.0273    
  3.3029      3.6684      4.1296      4.6804      5.3178      6.2570      7.8035      10.136      13.269      17.050    
  21.177      25.248      28.817      31.470      32.885      32.885      31.470      28.817      25.248      21.177    
  10.714      8.5583      6.9307      5.8267      5.1095      4.5491      4.0494      3.6267      3.2866      3.0249    
  2.8316      2.6953      2.6056      2.5549      2.5385      2.5549      2.6056      2.6953      2.8316      3.0249    
  3.2866      3.6267      4.0494      4.5491      5.1095      5.8267      6.9307      8.5583      10.714      13.269    
  15.990      18.574      20.706      22.110      22.601      22.110      20.706      18.574      15.990      13.269    
  7.2029      6.1598      5.4209      4.8754      4.3849      3.9442      3.5680      3.2612      3.0206      2.8384    
  2.7054      2.6130      2.5549      2.5268      2.5268      2.5549      2.6130      2.7054      2.8384      3.0206    
  3.2612      3.5680      3.9442      4.3849      4.8754      5.4209      6.1598      7.2029      8.5583      10.136    
  11.770      13.254      14.382      14.992      14.992      14.382      13.254      11.770      10.136      8.5583    
  5.5409      5.0535      4.6142      4.1971      3.8208      3.4968      3.2291      3.0155      2.8501      2.7256    
  2.6353      2.5741      2.5385      2.5268      2.5385      2.5741      2.6353      2.7256      2.8501      3.0155    
  3.2291      3.4968      3.8208      4.1971      4.6142      5.0535      5.5409      6.1598      6.9307      7.8035    
  8.6768      9.4252      9.9305      10.109      9.9305      9.4252      8.6768      7.8035      6.9307      6.1598    
  4.6955      4.3371      3.9960      3.6866      3.4179      3.1932      3.0112      2.8674      2.7564      2.6729    
  2.6129      2.5741      2.5549      2.5549      2.5741      2.6129      2.6729      2.7564      2.8674      3.0112    
  3.1932      3.4179      3.6866      3.9960      4.3371      4.6955      5.0535      5.4209      5.8267      6.2570    
  6.6636      6.9833      7.1597      7.1597      6.9833      6.6636      6.2570      5.8267      5.4209      5.0535    
  4.0588      3.7927      3.5497      3.3370      3.1572      3.0098      2.8915      2.7985      2.7266      2.6729    
  2.6353      2.6130      2.6056      2.6130      2.6353      2.6729      2.7266      2.7985      2.8915      3.0098    
  3.1572      3.3370      3.5497      3.7927      4.0588      4.3371      4.6142      4.8754      5.1095      5.3178    
  5.4904      5.6065      5.6476      5.6065      5.4904      5.3178      5.1095      4.8754      4.6142      4.3371    
  3.5971      3.4174      3.2591      3.1245      3.0136      2.9243      2.8536      2.7985      2.7564      2.7256    
  2.7054      2.6953      2.6953      2.7054      2.7256      2.7564      2.7985      2.8536      2.9243      3.0136    
  3.1245      3.2591      3.4174      3.5971      3.7927      3.9960      4.1971      4.3849      4.5491      4.6804    
  4.7719      4.8188      4.8188      4.7719      4.6804      4.5491      4.3849      4.1971      3.9960      3.7927    
  3.2956      3.1886      3.0985      3.0254      2.9681      2.9243      2.8915      2.8674      2.8501      2.8384    
  2.8316      2.8294      2.8316      2.8384      2.8501      2.8674      2.8915      2.9243      2.9681      3.0254    
  3.0985      3.1886      3.2956      3.4174      3.5497      3.6866      3.8208      3.9442      4.0494      4.1296    
  4.1799      4.1970      4.1799      4.1296      4.0494      3.9442      3.8208      3.6866      3.5497      3.4174    
  3.1289      3.0817      3.0475      3.0254      3.0136      3.0098      3.0112      3.0155      3.0206      3.0249    
  3.0273      3.0273      3.0249      3.0206      3.0155      3.0112      3.0098      3.0136      3.0254      3.0475    
  3.0817      3.1289      3.1886      3.2591      3.3370      3.4179      3.4968      3.5680      3.6267      3.6684    
  3.6900      3.6900      3.6684      3.6267      3.5680      3.4968      3.4179      3.3370      3.2591      3.1886    
  3.0759      3.0817      3.0985      3.1245      3.1572      3.1932      3.2291      3.2612      3.2866      3.3029    
  3.3085      3.3029      3.2866      3.2612      3.2291      3.1932      3.1572      3.1245      3.0985      3.0817    
  3.0759      3.0817      3.0985      3.1245      3.1572      3.1932      3.2291      3.2612      3.2866      3.3029    
  3.3085      3.3029      3.2866      3.2612      3.2291      3.1932      3.1572      3.1245      3.0985      3.0817    
  3.1289      3.1886      3.2591      3.3370      3.4179      3.4968      3.5680      3.6267      3.6684      3.6900    
  3.6900      3.6684      3.6267      3.5680      3.4968      3.4179      3.3370      3.2591      3.1886      3.1289    
  3.0817      3.0475      3.0254      3.0136      3.0098      3.0112      3.0155      3.0206      3.0249      3.0273    
  3.0273      3.0249      3.0206      3.0155      3.0112      3.0098      3.0136      3.0254      3.0475      3.0817    
  3.2956      3.4174      3.5497      3.6866      3.8208      3.9442      4.0494      4.1296      4.1799      4.1970    
  4.1799      4.1296      4.0494      3.9442      3.8208      3.6866      3.5497      3.4174      3.2956      3.1886    
  3.0985      3.0254      2.9681      2.9243      2.8915      2.8674      2.8501      2.8384      2.8316      2.8294    
  2.8316      2.8384      2.8501      2.8674      2.8915      2.9243      2.9681      3.0254      3.0985      3.1886    
  3.5971      3.7927      3.9960      4.1971      4.3849      4.5491      4.6804      4.7719      4.8188      4.8188    
  4.7719      4.6804      4.5491      4.3849      4.1971      3.9960      3.7927      3.5971      3.4174      3.2591    
  3.1245      3.0136      2.9243      2.8536      2.7985      2.7564      2.7256      2.7054      2.6953      2.6953    
  2.7054      2.7256      2.7564      2.7985      2.8536      2.9243      3.0136      3.1245      3.2591      3.4174    
  4.0588      4.3371      4.6142      4.8754      5.1095      5.3178      5.4904      5.6065      5.6476      5.6065    
  5.4904      5.3178      5.1095      4.8754      4.6142      4.3371      4.0588      3.7927      3.5497      3.3370    
  3.1572      3.0098      2.8915      2.7985      2.7266      2.6729      2.6353      2.6130      2.6056      2.6130    
  2.6353      2.6729      2.7266      2.7985      2.8915      3.0098      3.1572      3.3370      3.5497      3.7927    
  4.6955      5.0535      5.4209      5.8267      6.2570      6.6636      6.9833      7.1597      7.1597      6.9833    
  6.6636      6.2570      5.8267      5.4209      5.0535      4.6955      4.3371      3.9960      3.6866      3.4179    
  3.1932      3.0112      2.8674      2.7564      2.6729      2.6129      2.5741      2.5549      2.5549      2.5741    
  2.6129      2.6729      2.7564      2.8674      3.0112      3.1932      3.4179      3.6866      3.9960      4.3371    
  5.5409      6.1598      6.9307      7.8035      8.6768      9.4252      9.9305      10.109      9.9305      9.4252    
  8.6768      7.8035      6.9307      6.1598      5.5409      5.0535      4.6142      4.1971      3.8208      3.4968    
  3.2291      3.0155      2.8501      2.7256      2.6353      2.5741      2.5385      2.5268      2.5385      2.5741    
  2.6353      2.7256      2.8501      3.0155      3.2291      3.4968      3.8208      4.1971      4.6142      5.0535    
  7.2029      8.5583      10.136      11.770      13.254      14.382      14.992      14.992      14.382      13.254    
  11.770      10.136      8.5583      7.2029      6.1598      5.4209      4.8754      4.3849      3.9442      3.5680    
  3.2612      3.0206      2.8384      2.7054      2.6130      2.5549      2.5268      2.5268      2.5549      2.6130    
  2.7054      2.8384      3.0206      3.2612      3.5680      3.9442      4.3849      4.8754      5.4209      6.1598    
  10.714      13.269      15.990      18.574      20.706      22.110      22.601      22.110      20.706      18.574    
  15.990      13.269      10.714      8.5583      6.9307      5.8267      5.1095      4.5491      4.0494      3.6267    
  3.2866      3.0249      2.8316      2.6953      2.6056      2.5549      2.5385      2.5549      2.6056      2.6953    
  2.8316      3.0249      3.2866      3.6267      4.0494      4.5491      5.1095      5.8267      6.9307      8.5583    
  17.050      21.177      25.248      28.817      31.470      32.885      32.885      31.470      28.817      25.248    
  21.177      17.050      13.269      10.136      7.8035      6.2570      5.3178      4.6804      4.1296      3.6684    
  3.3029      3.0273      2.8294      2.6953      2.6130      2.5741      2.5741      2.6130      2.6953      2.8294    
  3.0273      3.3029      3.6684      4.1296      4.6804      5.3178      6.2570      7.8035      10.136      13.269    
  26.979      32.897      38.349      42.755      45.621      46.615      45.621      42.755      38.349      32.897    
  26.979      21.177      15.990      11.770      8.6768      6.6636      5.4904      4.7719      4.1799      3.6900    
  3.3085      3.0273      2.8316      2.7054      2.6353      2.6129      2.6353      2.7054      2.8316      3.0273    
  3.3085      3.6900      4.1799      4.7719      5.4904      6.6636      8.6768      11.770      15.990      21.177    
  40.943      48.675      55.335      60.227      62.819      62.819      60.227      55.335      48.675      40.943    
  32.897      25.248      18.574      13.254      9.4252      6.9833      5.6065      4.8188      4.1970      3.6900    
  3.3029      3.0249      2.8384      2.7256      2.6729      2.6729      2.7256      2.8384      3.0249      3.3029    
  3.6900      4.1970      4.8188      5.6065      6.9833      9.4252      13.254      18.574      25.248      32.897    
  58.973      68.317      75.794      80.628      82.301      80.628      75.794      68.317      58.973      48.675    
  38.349      28.817      20.706      14.382      9.9305      7.1597      5.6476      4.8188      4.1799      3.6684    
  3.2866      3.0206      2.8501      2.7564      2.7266      2.7564      2.8501      3.0206      3.2866      3.6684    
  4.1799      4.8188      5.6476      7.1597      9.9305      14.382      20.706      28.817      38.349      48.675    
  80.631      91.150      98.838      102.90      102.90      98.838      91.150      80.631      68.317      55.335    
  42.755      31.470      22.110      14.992      10.109      7.1597      5.6065      4.7719      4.1296      3.6267    
  3.2612      3.0155      2.8674      2.7985      2.7985      2.8674      3.0155      3.2612      3.6267      4.1296    
  4.7719      5.6065      7.1597      10.109      14.992      22.110      31.470      42.755      55.335      68.317    
  104.99      116.01      123.12      125.58      123.12      116.01      104.99      91.150      75.794      60.227    
  45.621      32.885      22.601      14.992      9.9305      6.9833      5.4904      4.6804      4.0494      3.5680    
  3.2291      3.0112      2.8915      2.8536      2.8915      3.0112      3.2291      3.5680      4.0494      4.6804    
  5.4904      6.9833      9.9305      14.992      22.601      32.885      45.621      60.227      75.794      91.150    
  130.63      141.29      146.92      146.92      141.29      130.63      116.01      98.838      80.628      62.819    
  46.615      32.885      22.110      14.382      9.4252      6.6636      5.3178      4.5491      3.9442      3.4968    
  3.1932      3.0098      2.9243      2.9243      3.0098      3.1932      3.4968      3.9442      4.5491      5.3178    
  6.6636      9.4252      14.382      22.110      32.885      46.615      62.819      80.628      98.838      116.01    
  155.74      165.06      168.27      165.06      155.74      141.29      123.12      102.90      82.301      62.819    
  45.621      31.470      20.706      13.254      8.6768      6.2570      5.1095      4.3849      3.8208      3.4179    
  3.1572      3.0136      2.9681      3.0136      3.1572      3.4179      3.8208      4.3849      5.1095      6.2570    
  8.6768      13.254      20.706      31.470      45.621      62.819      82.301      102.90      123.12      141.29    
  178.28      185.25      185.25      178.28      165.06      146.92      125.58      102.90      80.628      60.227    
  42.755      28.817      18.574      11.770      7.8035      5.8267      4.8754      4.1971      3.6866      3.3370    
  3.1245      3.0254      3.0254      3.1245      3.3370      3.6866      4.1971      4.8754      5.8267      7.8035    
  11.770      18.574      28.817      42.755      60.227      80.628      102.90      125.58      146.92      165.06    
  196.19      199.97      196.19      185.25      168.27      146.92      123.12      98.838      75.794      55.335    
  38.349      25.248      15.990      10.136      6.9307      5.4209      4.6142      3.9960      3.5497      3.2591    
  3.0985      3.0475      3.0985      3.2591      3.5497      3.9960      4.6142      5.4209      6.9307      10.136    
  15.990      25.248      38.349      55.335      75.794      98.838      123.12      146.92      168.27      185.25    
  207.74      207.74      199.97      185.25      165.06      141.29      116.01      91.150      68.317      48.675    
  32.897      21.177      13.269      8.5583      6.1598      5.0535      4.3371      3.7927      3.4174      3.1886    
  3.0817      3.0817      3.1886      3.4174      3.7927      4.3371      5.0535      6.1598      8.5583      13.269    
  21.177      32.897      48.675      68.317      91.150      116.01      141.29      165.06      185.25      199.97    
  207.74      199.97      185.25      165.06      141.29      116.01      91.150      68.317      48.675      32.897    
  21.177      13.269      8.5583      6.1598      5.0535      4.3371      3.7927      3.4174      3.1886      3.0817    
  3.0817      3.1886      3.4174      3.7927      4.3371      5.0535      6.1598      8.5583      13.269      21.177    
  32.897      48.675      68.317      91.150      116.01      141.29      165.06      185.25      199.97      207.74    
  199.97      188.83      171.53      149.78      125.55      100.82      77.344      56.497      39.177      25.800    
  16.329      10.322      7.0191      5.4613      4.6428      4.0187      3.5675      3.2733      3.1107      3.0591    
  3.1107      3.2733      3.5675      4.0187      4.6428      5.4613      7.0191      10.322      16.329      25.800    
  39.177      56.497      77.344      100.82      125.55      149.78      171.53      188.83      199.97      203.82    
  185.25      171.53      152.71      130.58      107.05      83.945      62.768      44.608      30.092      19.386    
  12.238      8.0397      5.9331      4.9368      4.2466      3.7253      3.3674      3.1498      3.0482      3.0482    
  3.1498      3.3674      3.7253      4.2466      4.9368      5.9331      8.0397      12.238      19.386      30.092    
  44.608      62.768      83.945      107.05      130.58      152.71      171.53      185.25      192.49      192.49    
  165.06      149.78      130.58      109.21      87.433      66.826      48.608      33.577      22.091      14.085    
  9.1185      6.4625      5.2110      4.4642      3.8830      3.4664      3.1963      3.0474      3.0002      3.0474    
  3.1963      3.4664      3.8830      4.4642      5.2110      6.4625      9.1185      14.085      22.091      33.577    
  48.608      66.826      87.433      109.21      130.58      149.78      165.06      174.90      178.31      174.90    
  141.29      125.55      107.05      87.433      68.231      50.729      35.850      24.113      15.625      10.114    
  6.9977      5.4737      4.6600      4.0319      3.5647      3.2469      3.0545      2.9648      2.9648      3.0545    
  3.2469      3.5647      4.0319      4.6600      5.4737      6.9977      10.114      15.625      24.113      35.850    
  50.729      68.231      87.433      107.05      125.55      141.29      152.78      158.84      158.84      152.78    
  116.01      100.82      83.945      66.826      50.729      36.640      25.194      16.646      10.880      7.4622    
  5.7126      4.8233      4.1633      3.6562      3.2976      3.0667      2.9398      2.8995      2.9398      3.0667    
  3.2976      3.6562      4.1633      4.8233      5.7126      7.4622      10.880      16.646      25.194      36.640    
  50.729      66.826      83.945      100.82      116.01      128.12      135.92      138.62      135.92      128.12    
  91.150      77.344      62.768      48.608      35.850      25.194      17.003      11.297      7.7788      5.8985    
  4.9459      4.2695      3.7348      3.3443      3.0812      2.9225      2.8487      2.8487      2.9225      3.0812    
  3.3443      3.7348      4.2695      4.9459      5.8985      7.7788      11.297      17.003      25.194      35.850    
  48.608      62.768      77.344      91.150      102.94      111.55      116.10      116.10      111.55      102.94    
  68.317      56.497      44.608      33.577      24.113      16.646      11.297      7.8913      6.0008      5.0226    
  4.3439      3.7952      3.3833      3.0955      2.9110      2.8097      2.7775      2.8097      2.9110      3.0955    
  3.3833      3.7952      4.3439      5.0226      6.0008      7.8913      11.297      16.646      24.113      33.577    
  44.608      56.497      68.317      79.023      87.580      93.111      95.024      93.111      87.580      79.023    
  48.675      39.177      30.092      22.091      15.625      10.880      7.7788      6.0008      5.0489      4.3822    
  3.8333      3.4112      3.1073      2.9036      2.7806      2.7232      2.7232      2.7806      2.9036      3.1073    
  3.4112      3.8333      4.3822      5.0489      6.0008      7.7788      10.880      15.625      22.091      30.092    
  39.177      48.675      57.764      65.576      71.307      74.340      74.340      71.307      65.576      57.764    
  32.897      25.800      19.386      14.085      10.114      7.4622      5.8985      5.0226      4.3822      3.8462    
  3.4258      3.1151      2.8991      2.7603      2.6835      2.6590      2.6835      2.7603      2.8991      3.1151    
  3.4258      3.8462      4.3822      5.0226      5.8985      7.4622      10.114      14.085      19.386      25.800    
  32.897      40.081      46.667      51.973      55.419      56.613      55.419      51.973      46.667      40.081    
  21.177      16.329      12.238      9.1185      6.9977      5.7126      4.9459      4.3439      3.8333      3.4258    
  3.1178      2.8970      2.7482      2.6574      2.6146      2.6146      2.6574      2.7482      2.8970      3.1178    
  3.4258      3.8333      4.3439      4.9459      5.7126      6.9977      9.1185      12.238      16.329      21.177    
  26.401      31.508      35.959      39.255      41.009      41.009      39.255      35.959      31.508      26.401    
  13.269      10.322      8.0397      6.4625      5.4737      4.8233      4.2695      3.7952      3.4112      3.1151    
  2.8970      2.7441      2.6444      2.5883      2.5703      2.5883      2.6444      2.7441      2.8970      3.1151    
  3.4112      3.7952      4.2695      4.8233      5.4737      6.4625      8.0397      10.322      13.269      16.693    
  20.284      23.658      26.421      28.234      28.865      28.234      26.421      23.658      20.284      16.693    
  8.5583      7.0191      5.9331      5.2110      4.6600      4.1633      3.7348      3.3833      3.1073      2.8991    
  2.7482      2.6444      2.5796      2.5486      2.5486      2.5796      2.6444      2.7482      2.8991      3.1073    
  3.3833      3.7348      4.1633      4.6600      5.2110      5.9331      7.0191      8.5583      10.517      12.748    
  15.020      17.057      18.594      19.420      19.420      18.594      17.057      15.020      12.748      10.517    
  6.1598      5.4613      4.9368      4.4642      4.0319      3.6562      3.3443      3.0955      2.9036      2.7603    
  2.6574      2.5883      2.5486      2.5356      2.5486      2.5883      2.6574      2.7603      2.9036      3.0955    
  3.3443      3.6562      4.0319      4.4642      4.9368      5.4613      6.1598      7.1085      8.2911      9.6086    
  10.905      12.001      12.735      12.993      12.735      12.001      10.905      9.6086      8.2911      7.1085    
  5.0535      4.6428      4.2466      3.8830      3.5647      3.2976      3.0812      2.9110      2.7806      2.6835    
  2.6146      2.5703      2.5486      2.5486      2.5703      2.6146      2.6835      2.7806      2.9110      3.0812    
  3.2976      3.5647      3.8830      4.2466      4.6428      5.0535      5.4982      6.0390      6.6811      7.3718    
  8.0210      8.5275      8.8052      8.8052      8.5275      8.0210      7.3718      6.6811      6.0390      5.4982    
  4.3371      4.0187      3.7253      3.4664      3.2469      3.0667      2.9225      2.8097      2.7232      2.6590    
  2.6146      2.5883      2.5796      2.5883      2.6146      2.6590      2.7232      2.8097      2.9225      3.0667    
  3.2469      3.4664      3.7253      4.0187      4.3371      4.6662      4.9893      5.3051      5.6314      5.9542    
  6.2346      6.4268      6.4954      6.4268      6.2346      5.9542      5.6314      5.3051      4.9893      4.6662    
  3.7927      3.5675      3.3674      3.1963      3.0545      2.9398      2.8487      2.7775      2.7232      2.6835    
  2.6574      2.6444      2.6444      2.6574      2.6835      2.7232      2.7775      2.8487      2.9398      3.0545    
  3.1963      3.3674      3.5675      3.7927      4.0355      4.2854      4.5297      4.7553      4.9503      5.1084    
  5.2239      5.2859      5.2859      5.2239      5.1084      4.9503      4.7553      4.5297      4.2854      4.0355    
  3.4174      3.2733      3.1498      3.0474      2.9648      2.8995      2.8487      2.8097      2.7806      2.7603    
  2.7482      2.7441      2.7482      2.7603      2.7806      2.8097      2.8487      2.8995      2.9648      3.0474    
  3.1498      3.2733      3.4174      3.5789      3.7521      3.9293      4.1010      4.2575      4.3897      4.4899    
  4.5524      4.5736      4.5524      4.4899      4.3897      4.2575      4.1010      3.9293      3.7521      3.5789    
  3.1886      3.1107      3.0482      3.0002      2.9648      2.9398      2.9225      2.9110      2.9036      2.8991    
  2.8970      2.8970      2.8991      2.9036      2.9110      2.9225      2.9398      2.9648      3.0002      3.0482    
  3.1107      3.1886      3.2810      3.3854      3.4976      3.6117      3.7212      3.8191      3.8989      3.9554    
  3.9846      3.9846      3.9554      3.8989      3.8191      3.7212      3.6117      3.4976      3.3854      3.2810    
  3.0817      3.0591      3.0482      3.0474      3.0545      3.0667      3.0812      3.0955      3.1073      3.1151    
  3.1178      3.1151      3.1073      3.0955      3.0812      3.0667      3.0545      3.0474      3.0482      3.0591    
  3.0817      3.1163      3.1621      3.2171      3.2778      3.3403      3.4000      3.4521      3.4927      3.5184    
  3.5272      3.5184      3.4927      3.4521      3.4000      3.3403      3.2778      3.2171      3.1621      3.1163    
  3.0817      3.1107      3.1498      3.1963      3.2469      3.2976      3.3443      3.3833      3.4112      3.4258    
  3.4258      3.4112      3.3833      3.3443      3.2976      3.2469      3.1963      3.1498      3.1107      3.0817    
  3.0640      3.0578      3.0623      3.0754      3.0946      3.1168      3.1389      3.1583      3.1726      3.1802    
  3.1802      3.1726      3.1583      3.1389      3.1168      3.0946      3.0754      3.0623      3.0578      3.0640    
  3.1886      3.2733      3.3674      3.4664      3.5647      3.6562      3.7348      3.7952      3.8333      3.8462    