   1   1   1   0
  0.1202557E+02  0.2571621E-09  0.2571621E-09  0.2571621E-09  0.5000000E-15
  1.000000000000000E-004
  CAR 
 Cu FCC                                  
     51.63926636     -4.39771456  301      9.32063322      1.00000000
     -4.398  0.0000E+00  0.0000E+00
     -4.211  0.0000E+00  0.0000E+00
     -4.024  0.0000E+00  0.0000E+00
     -3.837  0.0000E+00  0.0000E+00
     -3.651  0.0000E+00  0.0000E+00
     -3.464  0.0000E+00  0.0000E+00
     -3.277  0.0000E+00  0.0000E+00
     -3.090  0.0000E+00  0.0000E+00
     -2.903  0.0000E+00  0.0000E+00
     -2.717  0.0000E+00  0.0000E+00
     -2.530  0.0000E+00  0.0000E+00
     -2.343  0.0000E+00  0.0000E+00
     -2.156  0.0000E+00  0.0000E+00
     -1.969  0.1357E-08  0.2534E-09
     -1.783  0.2957E+00  0.5524E-01
     -1.596  0.2432E+00  0.1007E+00
     -1.409  0.1460E+00  0.1280E+00
     -1.222  0.1280E+00  0.1519E+00
     -1.035  0.9702E-01  0.1700E+00
     -0.849  0.9284E-01  0.1874E+00
     -0.662  0.6921E-01  0.2003E+00
     -0.475  0.8392E-01  0.2160E+00
     -0.288  0.8571E-01  0.2320E+00
     -0.102  0.4395E-01  0.2402E+00
      0.085  0.8586E-01  0.2563E+00
      0.272  0.7909E-01  0.2710E+00
      0.459  0.4938E-01  0.2803E+00
      0.646  0.8423E-01  0.2960E+00
      0.832  0.4353E-01  0.3041E+00
      1.019  0.8491E-01  0.3200E+00
      1.206  0.6074E-01  0.3313E+00
      1.393  0.6775E-01  0.3440E+00
      1.580  0.4471E-01  0.3524E+00
      1.766  0.1229E+00  0.3753E+00
      1.953  0.6540E-01  0.3875E+00
      2.140  0.1078E+00  0.4077E+00
      2.327  0.1305E+00  0.4320E+00
      2.514  0.9483E+00  0.6092E+00
      2.700  0.1410E+01  0.8725E+00
      2.887  0.8414E+00  0.1030E+01
      3.074  0.1333E+01  0.1279E+01
      3.261  0.3450E+01  0.1923E+01
      3.447  0.3557E+01  0.2588E+01
      3.634  0.1684E+01  0.2902E+01
      3.821  0.1253E+01  0.3137E+01
      4.008  0.1961E+01  0.3503E+01
      4.195  0.1720E+01  0.3824E+01
      4.381  0.3599E+01  0.4497E+01
      4.568  0.5598E+01  0.5542E+01
      4.755  0.2309E+01  0.5974E+01
      4.942  0.1798E+01  0.6310E+01
      5.129  0.1930E+01  0.6671E+01
      5.315  0.5682E+01  0.7732E+01
      5.502  0.2250E+01  0.8152E+01
      5.689  0.3195E+01  0.8749E+01
      5.876  0.6962E+01  0.1005E+02
      6.063  0.2009E+01  0.1043E+02
      6.249  0.1222E+00  0.1045E+02
      6.436  0.2379E+00  0.1049E+02
      6.623  0.2292E+00  0.1054E+02
      6.810  0.2158E+00  0.1058E+02
      6.996  0.1250E+00  0.1060E+02
      7.183  0.1464E+00  0.1063E+02
      7.370  0.1191E+00  0.1065E+02
      7.557  0.1236E+00  0.1067E+02
      7.744  0.1308E+00  0.1070E+02
      7.930  0.1696E+00  0.1073E+02
      8.117  0.7669E-01  0.1074E+02
      8.304  0.9643E-01  0.1076E+02
      8.491  0.1541E+00  0.1079E+02
      8.678  0.9710E-01  0.1081E+02
      8.864  0.1865E+00  0.1084E+02
      9.051  0.4851E+00  0.1093E+02
      9.238  0.3092E+00  0.1099E+02
      9.425  0.1366E+00  0.1102E+02
      9.612  0.2685E+00  0.1107E+02
      9.798  0.2043E+00  0.1110E+02
      9.985  0.1311E+00  0.1113E+02
     10.172  0.2310E+00  0.1117E+02
     10.359  0.1579E+00  0.1120E+02
     10.545  0.2043E+00  0.1124E+02
     10.732  0.1716E+00  0.1127E+02
     10.919  0.1296E+00  0.1130E+02
     11.106  0.9613E+00  0.1148E+02
     11.293  0.8283E+00  0.1163E+02
     11.479  0.5002E+00  0.1172E+02
     11.666  0.7773E+00  0.1187E+02
     11.853  0.9766E+00  0.1205E+02
     12.040  0.5014E+00  0.1214E+02
     12.227  0.5467E+00  0.1225E+02
     12.413  0.3698E+00  0.1232E+02
     12.600  0.3049E+00  0.1237E+02
     12.787  0.3755E+00  0.1244E+02
     12.974  0.3022E+00  0.1250E+02
     13.161  0.1020E+01  0.1269E+02
     13.347  0.5868E+00  0.1280E+02
     13.534  0.8712E+00  0.1296E+02
     13.721  0.5883E+00  0.1307E+02
     13.908  0.2556E+00  0.1312E+02
     14.094  0.9349E-01  0.1314E+02
     14.281  0.8385E-01  0.1315E+02
     14.468  0.9575E+00  0.1333E+02
     14.655  0.6043E+00  0.1344E+02
     14.842  0.2178E+00  0.1349E+02
     15.028  0.4094E+00  0.1356E+02
     15.215  0.1404E+01  0.1382E+02
     15.402  0.6977E+00  0.1395E+02
     15.589  0.9174E+00  0.1413E+02
     15.776  0.2163E+00  0.1417E+02
     15.962  0.2560E+00  0.1421E+02
     16.149  0.4860E+00  0.1431E+02
     16.336  0.4509E+00  0.1439E+02
     16.523  0.1746E+00  0.1442E+02
     16.710  0.2683E+00  0.1447E+02
     16.896  0.3146E+00  0.1453E+02
     17.083  0.3102E+00  0.1459E+02
     17.270  0.1102E+00  0.1461E+02
     17.457  0.2727E+00  0.1466E+02
     17.643  0.2454E+00  0.1471E+02
     17.830  0.2033E+00  0.1474E+02
     18.017  0.3246E+00  0.1480E+02
     18.204  0.1454E+00  0.1483E+02
     18.391  0.2011E+00  0.1487E+02
     18.577  0.1214E+00  0.1489E+02
     18.764  0.4324E+00  0.1497E+02
     18.951  0.1267E+00  0.1500E+02
     19.138  0.1853E+00  0.1503E+02
     19.325  0.2273E+00  0.1507E+02
     19.511  0.2461E+00  0.1512E+02
     19.698  0.1768E+00  0.1515E+02
     19.885  0.3015E+00  0.1521E+02
     20.072  0.2243E+00  0.1525E+02
     20.259  0.3901E+00  0.1532E+02
     20.445  0.8338E+00  0.1548E+02
     20.632  0.3790E+00  0.1555E+02
     20.819  0.3446E+00  0.1561E+02
     21.006  0.1798E+00  0.1565E+02
     21.193  0.3401E+00  0.1571E+02
     21.379  0.2193E+00  0.1575E+02
     21.566  0.2092E+00  0.1579E+02
     21.753  0.2682E+00  0.1584E+02
     21.940  0.1638E+00  0.1587E+02
     22.126  0.3419E+00  0.1594E+02
     22.313  0.2761E+00  0.1599E+02
     22.500  0.3332E+00  0.1605E+02
     22.687  0.2181E+00  0.1609E+02
     22.874  0.2727E+00  0.1614E+02
     23.060  0.1381E+00  0.1617E+02
     23.247  0.2565E+00  0.1622E+02
     23.434  0.2321E+00  0.1626E+02
     23.621  0.5350E-01  0.1627E+02
     23.808  0.1986E+00  0.1631E+02
     23.994  0.2096E+00  0.1635E+02
     24.181  0.1994E+00  0.1638E+02
     24.368  0.1511E+00  0.1641E+02
     24.555  0.1368E+00  0.1644E+02
     24.742  0.1802E+00  0.1647E+02
     24.928  0.7501E+00  0.1661E+02
     25.115  0.2529E+00  0.1666E+02
     25.302  0.2254E+00  0.1670E+02
     25.489  0.3347E+00  0.1676E+02
     25.675  0.3943E+00  0.1684E+02
     25.862  0.3079E+00  0.1689E+02
     26.049  0.3341E+00  0.1696E+02
     26.236  0.4865E+00  0.1705E+02
     26.423  0.3360E+00  0.1711E+02
     26.609  0.6453E+00  0.1723E+02
     26.796  0.4856E+00  0.1732E+02
     26.983  0.6759E+00  0.1745E+02
     27.170  0.3527E+00  0.1751E+02
     27.357  0.5926E+00  0.1762E+02
     27.543  0.6822E+00  0.1775E+02
     27.730  0.6502E+00  0.1787E+02
     27.917  0.4888E+00  0.1796E+02
     28.104  0.5777E+00  0.1807E+02
     28.291  0.5363E+00  0.1817E+02
     28.477  0.8127E+00  0.1832E+02
     28.664  0.5057E+00  0.1842E+02
     28.851  0.4071E+00  0.1849E+02
     29.038  0.6113E+00  0.1861E+02
     29.224  0.1158E+01  0.1882E+02
     29.411  0.6421E+00  0.1895E+02
     29.598  0.4186E+00  0.1902E+02
     29.785  0.5569E+00  0.1913E+02
     29.972  0.5792E+00  0.1924E+02
     30.158  0.3272E+00  0.1930E+02
     30.345  0.3399E+00  0.1936E+02
     30.532  0.3350E+00  0.1942E+02
     30.719  0.3635E+00  0.1949E+02
     30.906  0.2323E+00  0.1953E+02
     31.092  0.2351E+00  0.1958E+02
     31.279  0.2510E+00  0.1962E+02
     31.466  0.4537E+00  0.1971E+02
     31.653  0.3776E+00  0.1978E+02
     31.840  0.8781E-01  0.1980E+02
     32.026  0.3735E+00  0.1987E+02
     32.213  0.7949E+00  0.2001E+02
     32.400  0.1050E+01  0.2021E+02
     32.587  0.5165E+00  0.2031E+02
     32.773  0.2455E+00  0.2035E+02
     32.960  0.4742E+00  0.2044E+02
     33.147  0.3161E+00  0.2050E+02
     33.334  0.2609E+00  0.2055E+02
     33.521  0.3579E+00  0.2062E+02
     33.707  0.2766E+00  0.2067E+02
     33.894  0.5008E+00  0.2076E+02
     34.081  0.1849E+00  0.2080E+02
     34.268  0.4415E+00  0.2088E+02
     34.455  0.3114E+00  0.2094E+02
     34.641  0.3417E+00  0.2100E+02
     34.828  0.5814E+00  0.2111E+02
     35.015  0.5702E+00  0.2122E+02
     35.202  0.7180E+00  0.2135E+02
     35.389  0.7575E+00  0.2149E+02
     35.575  0.3008E+00  0.2155E+02
     35.762  0.3370E+00  0.2161E+02
     35.949  0.7601E+00  0.2175E+02
     36.136  0.1032E+01  0.2195E+02
     36.322  0.6751E+00  0.2207E+02
     36.509  0.1126E+01  0.2228E+02
     36.696  0.5398E+00  0.2238E+02
     36.883  0.1669E+00  0.2241E+02
     37.070  0.3753E+00  0.2248E+02
     37.256  0.2957E+00  0.2254E+02
     37.443  0.2740E+00  0.2259E+02
     37.630  0.2207E+00  0.2263E+02
     37.817  0.1194E+00  0.2265E+02
     38.004  0.3142E+00  0.2271E+02
     38.190  0.1662E+00  0.2274E+02
     38.377  0.1878E+00  0.2278E+02
     38.564  0.2099E+00  0.2282E+02
     38.751  0.1879E+00  0.2285E+02
     38.938  0.2312E+00  0.2290E+02
     39.124  0.2249E+00  0.2294E+02
     39.311  0.2734E+00  0.2299E+02
     39.498  0.1414E+00  0.2302E+02
     39.685  0.2937E+00  0.2307E+02
     39.872  0.2137E+00  0.2311E+02
     40.058  0.1368E+00  0.2314E+02
     40.245  0.1239E+00  0.2316E+02
     40.432  0.9465E-01  0.2318E+02
     40.619  0.1191E+00  0.2320E+02
     40.805  0.2514E+00  0.2325E+02
     40.992  0.4863E-01  0.2326E+02
     41.179  0.2189E+00  0.2330E+02
     41.366  0.1225E+00  0.2332E+02
     41.553  0.8692E-01  0.2334E+02
     41.739  0.5799E-01  0.2335E+02
     41.926  0.2419E+00  0.2339E+02
     42.113  0.4270E-01  0.2340E+02
     42.300  0.2139E+00  0.2344E+02
     42.487  0.1186E-01  0.2344E+02
     42.673  0.2791E+00  0.2349E+02
     42.860  0.9554E-02  0.2350E+02
     43.047  0.1643E+00  0.2353E+02
     43.234  0.1338E+00  0.2355E+02
     43.421  0.3008E+00  0.2361E+02
     43.607  0.3792E-01  0.2362E+02
     43.794  0.5055E-02  0.2362E+02
     43.981  0.8552E-01  0.2363E+02
     44.168  0.8468E-01  0.2365E+02
     44.354  0.1495E-02  0.2365E+02
     44.541  0.4856E-01  0.2366E+02
     44.728  0.7873E-01  0.2367E+02
     44.915  0.4198E-01  0.2368E+02
     45.102  0.4435E-01  0.2369E+02
     45.288  0.8315E-01  0.2370E+02
     45.475  0.2571E-02  0.2370E+02
     45.662  0.4431E-01  0.2371E+02
     45.849  0.7763E-01  0.2373E+02
     46.036  0.4932E-01  0.2374E+02
     46.222  0.4283E-01  0.2374E+02
     46.409  0.2375E-01  0.2375E+02
     46.596  0.1020E+00  0.2377E+02
     46.783  0.4543E-01  0.2378E+02
     46.970  0.1281E-01  0.2378E+02
     47.156  0.3690E-01  0.2379E+02
     47.343  0.7925E-01  0.2380E+02
     47.530  0.5702E-01  0.2381E+02
     47.717  0.3458E-01  0.2382E+02
     47.903  0.7924E-01  0.2383E+02
     48.090  0.8196E-01  0.2385E+02
     48.277  0.9427E-01  0.2386E+02
     48.464  0.6834E-01  0.2388E+02
     48.651  0.1126E+00  0.2390E+02
     48.837  0.9704E-01  0.2392E+02
     49.024  0.1970E+00  0.2395E+02
     49.211  0.2478E+00  0.2400E+02
     49.398  0.0000E+00  0.2400E+02
     49.585  0.0000E+00  0.2400E+02
     49.771  0.0000E+00  0.2400E+02
     49.958  0.0000E+00  0.2400E+02
     50.145  0.0000E+00  0.2400E+02
     50.332  0.0000E+00  0.2400E+02
     50.519  0.0000E+00  0.2400E+02
     50.705  0.0000E+00  0.2400E+02
     50.892  0.0000E+00  0.2400E+02
     51.079  0.0000E+00  0.2400E+02
     51.266  0.0000E+00  0.2400E+02
     51.452  0.0000E+00  0.2400E+02
     51.639  0.0000E+00  0.2400E+02
     51.63926636     -4.39771456  301      9.32063322      1.00000000
     -4.398  0.0000E+00  0.0000E+00  0.0000E+00  0.0000E+00  0.0000E+00  0.0000E+00  0.0000E+00  0.0000E+00  0.0000E+00
     -4.211  0.0000E+00  0.0000E+00  0.0000E+00  0.0000E+00  0.0000E+00  0.0000E+00  0.0000E+00  0.0000E+00  0.0000E+00
     -4.024  0.0000E+00  0.0000E+00  0.0000E+00  0.0000E+00  0.0000E+00  0.0000E+00  0.0000E+00  0.0000E+00  0.0000E+00
     -3.837  0.0000E+00  0.0000E+00  0.0000E+00  0.0000E+00  0.0000E+00  0.0000E+00  0.0000E+00  0.0000E+00  0.0000E+00
     -3.651  0.0000E+00  0.0000E+00  0.0000E+00  0.0000E+00  0.0000E+00  0.0000E+00  0.0000E+00  0.0000E+00  0.0000E+00
     -3.464  0.0000E+00  0.0000E+00  0.0000E+00  0.0000E+00  0.0000E+00  0.0000E+00  0.0000E+00  0.0000E+00  0.0000E+00
     -3.277  0.0000E+00  0.0000E+00  0.0000E+00  0.0000E+00  0.0000E+00  0.0000E+00  0.0000E+00  0.0000E+00  0.0000E+00
     -3.090  0.0000E+00  0.0000E+00  0.0000E+00  0.0000E+00  0.0000E+00  0.0000E+00  0.0000E+00  0.0000E+00  0.0000E+00
     -2.903  0.0000E+00  0.0000E+00  0.0000E+00  0.0000E+00  0.0000E+00  0.0000E+00  0.0000E+00  0.0000E+00  0.0000E+00
     -2.717  0.0000E+00  0.0000E+00  0.0000E+00  0.0000E+00  0.0000E+00  0.0000E+00  0.0000E+00  0.0000E+00  0.0000E+00
     -2.530  0.0000E+00  0.0000E+00  0.0000E+00  0.0000E+00  0.0000E+00  0.0000E+00  0.0000E+00  0.0000E+00  0.0000E+00
     -2.343  0.0000E+00  0.0000E+00  0.0000E+00  0.0000E+00  0.0000E+00  0.0000E+00  0.0000E+00  0.0000E+00  0.0000E+00
     -2.156  0.0000E+00  0.0000E+00  0.0000E+00  0.0000E+00  0.0000E+00  0.0000E+00  0.0000E+00  0.0000E+00  0.0000E+00
     -1.969  0.7802E-09  0.1773E-14  0.1773E-14  0.1773E-14  0.2050E-17  0.2050E-17  0.8368E-18  0.2050E-17  0.8368E-18
     -1.783  0.1698E+00  0.9003E-04  0.9003E-04  0.9003E-04  0.2404E-06  0.2404E-06  0.1838E-06  0.2404E-06  0.1838E-06
     -1.596  0.1381E+00  0.6068E-03  0.6068E-03  0.6068E-03  0.6466E-05  0.6466E-05  0.4120E-05  0.6466E-05  0.4120E-05
     -1.409  0.8140E-01  0.8377E-03  0.8377E-03  0.8377E-03  0.1935E-04  0.1935E-04  0.1169E-04  0.1935E-04  0.1169E-04
     -1.222  0.7009E-01  0.1147E-02  0.1147E-02  0.1147E-02  0.4062E-04  0.4062E-04  0.2957E-04  0.4062E-04  0.2957E-04
     -1.035  0.5209E-01  0.1183E-02  0.1183E-02  0.1183E-02  0.5501E-04  0.5501E-04  0.5399E-04  0.5501E-04  0.5399E-04
     -0.849  0.4898E-01  0.1383E-02  0.1383E-02  0.1383E-02  0.1009E-03  0.1009E-03  0.6465E-04  0.1009E-03  0.6465E-04
     -0.662  0.3597E-01  0.1190E-02  0.1190E-02  0.1190E-02  0.8939E-04  0.8939E-04  0.7361E-04  0.8939E-04  0.7361E-04
     -0.475  0.4274E-01  0.1668E-02  0.1668E-02  0.1668E-02  0.1357E-03  0.1357E-03  0.1857E-03  0.1357E-03  0.1857E-03
     -0.288  0.4268E-01  0.1945E-02  0.1945E-02  0.1945E-02  0.3686E-03  0.3686E-03  0.4991E-04  0.3686E-03  0.4991E-04
     -0.102  0.2141E-01  0.1123E-02  0.1123E-02  0.1123E-02  0.1070E-04  0.1070E-04  0.3289E-03  0.1070E-04  0.3289E-03
      0.085  0.4108E-01  0.2330E-02  0.2330E-02  0.2330E-02  0.5988E-03  0.5988E-03  0.1010E-03  0.5988E-03  0.1010E-03
      0.272  0.3652E-01  0.2376E-02  0.2376E-02  0.2376E-02  0.5291E-03  0.5291E-03  0.5478E-03  0.5291E-03  0.5478E-03
      0.459  0.2241E-01  0.1619E-02  0.1619E-02  0.1619E-02  0.4510E-03  0.4510E-03  0.1631E-03  0.4510E-03  0.1631E-03
      0.646  0.3675E-01  0.2834E-02  0.2834E-02  0.2834E-02  0.9351E-03  0.9351E-03  0.9224E-03  0.9351E-03  0.9224E-03
      0.832  0.1851E-01  0.1662E-02  0.1662E-02  0.1662E-02  0.6185E-03  0.6185E-03  0.2175E-03  0.6185E-03  0.2175E-03
      1.019  0.3452E-01  0.3087E-02  0.3087E-02  0.3087E-02  0.1420E-02  0.1420E-02  0.1565E-02  0.1420E-02  0.1565E-02
      1.206  0.2337E-01  0.2318E-02  0.2318E-02  0.2318E-02  0.2192E-02  0.2192E-02  0.2218E-03  0.2192E-02  0.2218E-03
      1.393  0.2521E-01  0.2724E-02  0.2724E-02  0.2724E-02  0.9049E-03  0.9049E-03  0.2649E-02  0.9049E-03  0.2649E-02
      1.580  0.1524E-01  0.1416E-02  0.1416E-02  0.1416E-02  0.3137E-02  0.3137E-02  0.1158E-03  0.3137E-02  0.1158E-03
      1.766  0.3988E-01  0.4722E-02  0.4722E-02  0.4722E-02  0.5375E-02  0.5375E-02  0.4378E-02  0.5375E-02  0.4378E-02
      1.953  0.1724E-01  0.1991E-02  0.1991E-02  0.1991E-02  0.3813E-02  0.3813E-02  0.5074E-02  0.3813E-02  0.5074E-02
      2.140  0.2870E-01  0.3329E-02  0.3329E-02  0.3329E-02  0.1081E-01  0.1081E-01  0.1862E-02  0.1081E-01  0.1862E-02
      2.327  0.2472E-01  0.2026E-02  0.2026E-02  0.2026E-02  0.1660E-01  0.1660E-01  0.9207E-02  0.1660E-01  0.9207E-02
      2.514  0.1384E+00  0.4410E-02  0.4410E-02  0.4410E-02  0.1889E+00  0.1889E+00  0.2630E-01  0.1889E+00  0.2630E-01
      2.700  0.9573E-01  0.2673E-02  0.2673E-02  0.2673E-02  0.9439E-01  0.9439E-01  0.3938E+00  0.9439E-01  0.3938E+00
      2.887  0.5760E-01  0.5097E-02  0.5097E-02  0.5097E-02  0.7864E-01  0.7864E-01  0.1971E+00  0.7864E-01  0.1971E+00
      3.074  0.4304E-01  0.6109E-02  0.6109E-02  0.6109E-02  0.2617E+00  0.2617E+00  0.1586E+00  0.2617E+00  0.1586E+00
      3.261  0.6109E-01  0.1602E-01  0.1602E-01  0.1602E-01  0.4912E+00  0.4912E+00  0.7246E+00  0.4912E+00  0.7246E+00
      3.447  0.3051E-01  0.3985E-01  0.3985E-01  0.3985E-01  0.5283E+00  0.5283E+00  0.6903E+00  0.5283E+00  0.6903E+00
      3.634  0.6814E-02  0.2558E-01  0.2558E-01  0.2558E-01  0.3366E+00  0.3366E+00  0.1961E+00  0.3366E+00  0.1961E+00
      3.821  0.2884E-02  0.1802E-01  0.1802E-01  0.1802E-01  0.2351E+00  0.2351E+00  0.1777E+00  0.2351E+00  0.1777E+00
      4.008  0.4966E-03  0.2683E-01  0.2683E-01  0.2683E-01  0.4551E+00  0.4551E+00  0.1652E+00  0.4551E+00  0.1652E+00
      4.195  0.1413E-02  0.2001E-01  0.2001E-01  0.2001E-01  0.3833E+00  0.3833E+00  0.1836E+00  0.3833E+00  0.1836E+00
      4.381  0.3435E-02  0.2675E-01  0.2675E-01  0.2675E-01  0.7688E+00  0.7688E+00  0.4941E+00  0.7688E+00  0.4941E+00
      4.568  0.3482E-02  0.3658E-01  0.3658E-01  0.3658E-01  0.1388E+01  0.1388E+01  0.5126E+00  0.1388E+01  0.5126E+00
      4.755  0.3559E-02  0.3581E-01  0.3581E-01  0.3581E-01  0.5475E+00  0.5475E+00  0.1957E+00  0.5475E+00  0.1957E+00
      4.942  0.1013E-01  0.1905E-01  0.1905E-01  0.1905E-01  0.2412E+00  0.2412E+00  0.4515E+00  0.2412E+00  0.4515E+00
      5.129  0.9020E-02  0.1951E-01  0.1951E-01  0.1951E-01  0.2147E+00  0.2147E+00  0.5601E+00  0.2147E+00  0.5601E+00
      5.315  0.1884E-01  0.1479E-01  0.1479E-01  0.1479E-01  0.2150E+00  0.2150E+00  0.2411E+01  0.2150E+00  0.2411E+01
      5.502  0.7258E-02  0.1801E-01  0.1801E-01  0.1801E-01  0.2419E+00  0.2419E+00  0.6906E+00  0.2419E+00  0.6906E+00
      5.689  0.3449E-02  0.8813E-02  0.8813E-02  0.8813E-02  0.5494E+00  0.5494E+00  0.7337E+00  0.5494E+00  0.7337E+00
      5.876  0.7845E-02  0.1079E-01  0.1079E-01  0.1079E-01  0.1769E+01  0.1769E+01  0.7741E+00  0.1769E+01  0.7741E+00
      6.063  0.9632E-03  0.5551E-03  0.5551E-03  0.5551E-03  0.6618E+00  0.6618E+00  0.6690E-02  0.6618E+00  0.6690E-02
      6.249  0.9826E-02  0.1030E-01  0.1030E-01  0.1030E-01  0.7175E-02  0.7175E-02  0.1411E-01  0.7175E-02  0.1411E-01
      6.436  0.3118E-02  0.3420E-01  0.3420E-01  0.3420E-01  0.7325E-02  0.7325E-02  0.7513E-02  0.7325E-02  0.7513E-02
      6.623  0.1673E-03  0.3627E-01  0.3627E-01  0.3627E-01  0.3734E-02  0.3734E-02  0.4924E-02  0.3734E-02  0.4924E-02
      6.810  0.9981E-02  0.2400E-01  0.2400E-01  0.2400E-01  0.1087E-01  0.1087E-01  0.1685E-01  0.1087E-01  0.1685E-01
      6.996  0.3555E-04  0.1662E-01  0.1662E-01  0.1662E-01  0.5187E-02  0.5187E-02  0.7516E-02  0.5187E-02  0.7516E-02
      7.183  0.4797E-02  0.1465E-01  0.1465E-01  0.1465E-01  0.1085E-01  0.1085E-01  0.1216E-01  0.1085E-01  0.1216E-01
      7.370  0.5516E-02  0.1509E-01  0.1509E-01  0.1509E-01  0.3541E-02  0.3541E-02  0.8598E-02  0.3541E-02  0.8598E-02
      7.557  0.5546E-02  0.1213E-01  0.1213E-01  0.1213E-01  0.9152E-02  0.9152E-02  0.1006E-01  0.9152E-02  0.1006E-01
      7.744  0.3481E-03  0.1623E-01  0.1623E-01  0.1623E-01  0.6483E-02  0.6483E-02  0.9931E-02  0.6483E-02  0.9931E-02
      7.930  0.4111E-02  0.2215E-01  0.2215E-01  0.2215E-01  0.6111E-02  0.6111E-02  0.1180E-01  0.6111E-02  0.1180E-01
      8.117  0.6062E-02  0.6729E-02  0.6729E-02  0.6729E-02  0.6152E-02  0.6152E-02  0.6029E-02  0.6152E-02  0.6029E-02
      8.304  0.6676E-03  0.1182E-01  0.1182E-01  0.1182E-01  0.4887E-02  0.4887E-02  0.7484E-02  0.4887E-02  0.7484E-02
      8.491  0.2371E-02  0.2120E-01  0.2120E-01  0.2120E-01  0.5327E-02  0.5327E-02  0.9696E-02  0.5327E-02  0.9696E-02
      8.678  0.2629E-04  0.1232E-01  0.1232E-01  0.1232E-01  0.4601E-02  0.4601E-02  0.7462E-02  0.4601E-02  0.7462E-02
      8.864  0.7902E-02  0.2687E-01  0.2687E-01  0.2687E-01  0.6379E-02  0.6379E-02  0.6818E-02  0.6379E-02  0.6818E-02
      9.051  0.2568E-04  0.8749E-01  0.8749E-01  0.8749E-01  0.5405E-02  0.5405E-02  0.6463E-02  0.5405E-02  0.6463E-02
      9.238  0.3403E-04  0.5013E-01  0.5013E-01  0.5013E-01  0.8715E-02  0.8715E-02  0.9359E-02  0.8715E-02  0.9359E-02
      9.425  0.4528E-04  0.2425E-01  0.2425E-01  0.2425E-01  0.3495E-02  0.3495E-02  0.5053E-03  0.3495E-02  0.5053E-03
      9.612  0.7292E-02  0.3713E-01  0.3713E-01  0.3713E-01  0.1229E-01  0.1229E-01  0.1140E-01  0.1229E-01  0.1140E-01
      9.798  0.4432E-04  0.3185E-01  0.3185E-01  0.3185E-01  0.8199E-02  0.8199E-02  0.6042E-02  0.8199E-02  0.6042E-02
      9.985  0.1416E-04  0.2072E-01  0.2072E-01  0.2072E-01  0.5542E-02  0.5542E-02  0.3086E-02  0.5542E-02  0.3086E-02
     10.172  0.6866E-04  0.3458E-01  0.3458E-01  0.3458E-01  0.1045E-01  0.1045E-01  0.8238E-02  0.1045E-01  0.8238E-02
     10.359  0.7068E-02  0.2231E-01  0.2231E-01  0.2231E-01  0.8460E-02  0.8460E-02  0.2907E-02  0.8460E-02  0.2907E-02
     10.545  0.6718E-04  0.2998E-01  0.2998E-01  0.2998E-01  0.9792E-02  0.9792E-02  0.7758E-02  0.9792E-02  0.7758E-02
     10.732  0.6155E-04  0.2564E-01  0.2564E-01  0.2564E-01  0.8563E-02  0.8563E-02  0.5265E-02  0.8563E-02  0.5265E-02
     10.919  0.2821E-05  0.1988E-01  0.1988E-01  0.1988E-01  0.6775E-02  0.6775E-02  0.2778E-02  0.6775E-02  0.2778E-02
     11.106  0.3423E+00  0.2359E-01  0.2359E-01  0.2359E-01  0.1102E+00  0.1102E+00  0.5064E-02  0.1102E+00  0.5064E-02
     11.293  0.2672E+00  0.3285E-01  0.3285E-01  0.3285E-01  0.8511E-01  0.8511E-01  0.5817E-02  0.8511E-01  0.5817E-02
     11.479  0.1418E+00  0.2906E-01  0.2906E-01  0.2906E-01  0.4587E-01  0.4587E-01  0.2745E-02  0.4587E-01  0.2745E-02
     11.666  0.1135E+00  0.8249E-01  0.8249E-01  0.8249E-01  0.5861E-01  0.5861E-01  0.5055E-02  0.5861E-01  0.5055E-02
     11.853  0.7630E-01  0.1283E+00  0.1283E+00  0.1283E+00  0.6730E-01  0.6730E-01  0.2781E-02  0.6730E-01  0.2781E-02
     12.040  0.6365E-01  0.5804E-01  0.5804E-01  0.5804E-01  0.3584E-01  0.3584E-01  0.1239E-02  0.3584E-01  0.1239E-02
     12.227  0.6330E-01  0.6538E-01  0.6538E-01  0.6538E-01  0.3664E-01  0.3664E-01  0.2855E-02  0.3664E-01  0.2855E-02
     12.413  0.3073E-01  0.4850E-01  0.4850E-01  0.4850E-01  0.2401E-01  0.2401E-01  0.1304E-02  0.2401E-01  0.1304E-02
     12.600  0.2542E-01  0.3922E-01  0.3922E-01  0.3922E-01  0.1861E-01  0.1861E-01  0.3270E-02  0.1861E-01  0.3270E-02
     12.787  0.3363E-01  0.4723E-01  0.4723E-01  0.4723E-01  0.2403E-01  0.2403E-01  0.3214E-02  0.2403E-01  0.3214E-02
     12.974  0.8326E-02  0.4461E-01  0.4461E-01  0.4461E-01  0.1920E-01  0.1920E-01  0.1253E-02  0.1920E-01  0.1253E-02
     13.161  0.8942E-01  0.1225E+00  0.1225E+00  0.1225E+00  0.4957E-01  0.4957E-01  0.3096E-01  0.4957E-01  0.3096E-01
     13.347  0.3997E-01  0.7534E-01  0.7534E-01  0.7534E-01  0.3068E-01  0.3068E-01  0.1401E-01  0.3068E-01  0.1401E-01
     13.534  0.3840E-01  0.1205E+00  0.1205E+00  0.1205E+00  0.5155E-01  0.5155E-01  0.1141E-01  0.5155E-01  0.1141E-01
     13.721  0.2631E-01  0.8045E-01  0.8045E-01  0.8045E-01  0.3206E-01  0.3206E-01  0.1169E-01  0.3206E-01  0.1169E-01
     13.908  0.7041E-02  0.3699E-01  0.3699E-01  0.3699E-01  0.1503E-01  0.1503E-01  0.2960E-02  0.1503E-01  0.2960E-02
     14.094  0.1660E-02  0.1307E-01  0.1307E-01  0.1307E-01  0.5128E-02  0.5128E-02  0.2236E-02  0.5128E-02  0.2236E-02
     14.281  0.1039E-01  0.9073E-02  0.9073E-02  0.9073E-02  0.6114E-02  0.6114E-02  0.4621E-03  0.6114E-02  0.4621E-03
     14.468  0.3467E+00  0.1270E-01  0.1270E-01  0.1270E-01  0.3867E-02  0.3867E-02  0.1415E+00  0.3867E-02  0.1415E+00
     14.655  0.1959E+00  0.1276E-01  0.1276E-01  0.1276E-01  0.9428E-03  0.9428E-03  0.9045E-01  0.9428E-03  0.9045E-01
     14.842  0.4664E-01  0.1512E-01  0.1512E-01  0.1512E-01  0.5974E-02  0.5974E-02  0.1894E-01  0.5974E-02  0.1894E-01
     15.028  0.1524E+00  0.1361E-01  0.1361E-01  0.1361E-01  0.7869E-02  0.7869E-02  0.3359E-01  0.7869E-02  0.3359E-01
     15.215  0.5967E+00  0.1961E-01  0.1961E-01  0.1961E-01  0.6174E-02  0.6174E-02  0.1485E+00  0.6174E-02  0.1485E+00
     15.402  0.2434E+00  0.2448E-01  0.2448E-01  0.2448E-01  0.4995E-02  0.4995E-02  0.6859E-01  0.4995E-02  0.6859E-01
     15.589  0.1791E+00  0.5677E-01  0.5677E-01  0.5677E-01  0.6499E-02  0.6499E-02  0.1055E+00  0.6499E-02  0.1055E+00
     15.776  0.1286E-01  0.1979E-01  0.1979E-01  0.1979E-01  0.2781E-02  0.2781E-02  0.2591E-01  0.2781E-02  0.2591E-01
     15.962  0.6786E-01  0.1754E-01  0.1754E-01  0.1754E-01  0.7241E-02  0.7241E-02  0.1375E-01  0.7241E-02  0.1375E-01
     16.149  0.2713E+00  0.9595E-02  0.9595E-02  0.9595E-02  0.1670E-02  0.1670E-02  0.1908E-01  0.1670E-02  0.1908E-01
     16.336  0.1465E+00  0.2981E-01  0.2981E-01  0.2981E-01  0.9070E-02  0.9070E-02  0.1955E-01  0.9070E-02  0.1955E-01
     16.523  0.5300E-01  0.1087E-01  0.1087E-01  0.1087E-01  0.1150E-02  0.1150E-02  0.1198E-01  0.1150E-02  0.1198E-01
     16.710  0.7594E-01  0.2045E-01  0.2045E-01  0.2045E-01  0.4595E-02  0.4595E-02  0.1281E-01  0.4595E-02  0.1281E-01
     16.896  0.7406E-01  0.2392E-01  0.2392E-01  0.2392E-01  0.6087E-02  0.6087E-02  0.1883E-01  0.6087E-02  0.1883E-01
     17.083  0.6879E-01  0.2902E-01  0.2902E-01  0.2902E-01  0.8428E-02  0.8428E-02  0.1012E-01  0.8428E-02  0.1012E-01
     17.270  0.2318E-01  0.1171E-01  0.1171E-01  0.1171E-01  0.2331E-02  0.2331E-02  0.2563E-02  0.2331E-02  0.2563E-02
     17.457  0.4925E-01  0.2485E-01  0.2485E-01  0.2485E-01  0.4484E-02  0.4484E-02  0.1708E-01  0.4484E-02  0.1708E-01
     17.643  0.5298E-01  0.2334E-01  0.2334E-01  0.2334E-01  0.4579E-02  0.4579E-02  0.1042E-01  0.4579E-02  0.1042E-01
     17.830  0.3318E-01  0.2065E-01  0.2065E-01  0.2065E-01  0.7875E-02  0.7875E-02  0.5533E-02  0.7875E-02  0.5533E-02
     18.017  0.4464E-01  0.3512E-01  0.3512E-01  0.3512E-01  0.6462E-02  0.6462E-02  0.1589E-01  0.6462E-02  0.1589E-01
     18.204  0.4116E-01  0.1229E-01  0.1229E-01  0.1229E-01  0.1364E-02  0.1364E-02  0.5421E-02  0.1364E-02  0.5421E-02
     18.391  0.2332E-01  0.2555E-01  0.2555E-01  0.2555E-01  0.4524E-02  0.4524E-02  0.5552E-02  0.4524E-02  0.5552E-02
     18.577  0.5874E-02  0.1443E-01  0.1443E-01  0.1443E-01  0.4977E-02  0.4977E-02  0.5088E-02  0.4977E-02  0.5088E-02
     18.764  0.7084E-01  0.4528E-01  0.4528E-01  0.4528E-01  0.9275E-02  0.9275E-02  0.1823E-01  0.9275E-02  0.1823E-01
     18.951  0.1196E-01  0.1774E-01  0.1774E-01  0.1774E-01  0.2494E-02  0.2494E-02  0.2018E-02  0.2494E-02  0.2018E-02
     19.138  0.1858E-01  0.2252E-01  0.2252E-01  0.2252E-01  0.2712E-02  0.2712E-02  0.8639E-02  0.2712E-02  0.8639E-02
     19.325  0.2965E-01  0.2816E-01  0.2816E-01  0.2816E-01  0.4122E-02  0.4122E-02  0.7530E-02  0.4122E-02  0.7530E-02
     19.511  0.2489E-01  0.3097E-01  0.3097E-01  0.3097E-01  0.7259E-02  0.7259E-02  0.5751E-02  0.7259E-02  0.5751E-02
     19.698  0.1029E-01  0.2306E-01  0.2306E-01  0.2306E-01  0.4753E-02  0.4753E-02  0.5369E-02  0.4753E-02  0.5369E-02
     19.885  0.3146E-01  0.4094E-01  0.4094E-01  0.4094E-01  0.3393E-02  0.3393E-02  0.1043E-01  0.3393E-02  0.1043E-01
     20.072  0.1450E-01  0.3310E-01  0.3310E-01  0.3310E-01  0.2470E-02  0.2470E-02  0.6277E-02  0.2470E-02  0.6277E-02
     20.259  0.1841E-01  0.5859E-01  0.5859E-01  0.5859E-01  0.6427E-02  0.6427E-02  0.8562E-02  0.6427E-02  0.8562E-02
     20.445  0.1279E-01  0.1551E+00  0.1551E+00  0.1551E+00  0.2543E-02  0.2543E-02  0.3002E-02  0.2543E-02  0.3002E-02
     20.632  0.1535E-01  0.6183E-01  0.6183E-01  0.6183E-01  0.2686E-02  0.2686E-02  0.8082E-02  0.2686E-02  0.8082E-02
     20.819  0.1036E-01  0.5321E-01  0.5321E-01  0.5321E-01  0.5771E-02  0.5771E-02  0.8213E-02  0.5771E-02  0.8213E-02
     21.006  0.1199E-01  0.2522E-01  0.2522E-01  0.2522E-01  0.1266E-02  0.1266E-02  0.7303E-02  0.1266E-02  0.7303E-02
     21.193  0.1570E-01  0.5381E-01  0.5381E-01  0.5381E-01  0.6555E-02  0.6555E-02  0.5781E-02  0.6555E-02  0.5781E-02
     21.379  0.8771E-02  0.3260E-01  0.3260E-01  0.3260E-01  0.2526E-02  0.2526E-02  0.7818E-02  0.2526E-02  0.7818E-02
     21.566  0.4138E-02  0.3278E-01  0.3278E-01  0.3278E-01  0.2260E-02  0.2260E-02  0.7415E-02  0.2260E-02  0.7415E-02
     21.753  0.1187E-01  0.4211E-01  0.4211E-01  0.4211E-01  0.5094E-02  0.5094E-02  0.5356E-02  0.5094E-02  0.5356E-02
     21.940  0.1032E-01  0.2503E-01  0.2503E-01  0.2503E-01  0.2322E-02  0.2322E-02  0.3322E-02  0.2322E-02  0.3322E-02
     22.126  0.1253E-01  0.4217E-01  0.4217E-01  0.4217E-01  0.7378E-02  0.7378E-02  0.1922E-01  0.7378E-02  0.1922E-01
     22.313  0.1117E-02  0.4933E-01  0.4933E-01  0.4933E-01  0.2163E-02  0.2163E-02  0.6681E-02  0.2163E-02  0.6681E-02
     22.500  0.7657E-02  0.5825E-01  0.5825E-01  0.5825E-01  0.6070E-03  0.6070E-03  0.1145E-01  0.6070E-03  0.1145E-01
     22.687  0.2510E-02  0.3478E-01  0.3478E-01  0.3478E-01  0.3530E-02  0.3530E-02  0.6536E-02  0.3530E-02  0.6536E-02
     22.874  0.1283E-01  0.3508E-01  0.3508E-01  0.3508E-01  0.6475E-02  0.6475E-02  0.1090E-01  0.6475E-02  0.1090E-01
     23.060  0.7862E-05  0.2127E-01  0.2127E-01  0.2127E-01  0.4208E-02  0.4208E-02  0.4012E-02  0.4208E-02  0.4012E-02
     23.247  0.8693E-02  0.3870E-01  0.3870E-01  0.3870E-01  0.3509E-02  0.3509E-02  0.1093E-01  0.3509E-02  0.1093E-01
     23.434  0.4396E-02  0.3142E-01  0.3142E-01  0.3142E-01  0.2663E-02  0.2663E-02  0.1381E-01  0.2663E-02  0.1381E-01
     23.621  0.1472E-02  0.7863E-02  0.7863E-02  0.7863E-02  0.5422E-03  0.5422E-03  0.2713E-02  0.5422E-03  0.2713E-02
     23.808  0.5855E-02  0.3047E-01  0.3047E-01  0.3047E-01  0.5633E-02  0.5633E-02  0.3601E-02  0.5633E-02  0.3601E-02
     23.994  0.6930E-02  0.2860E-01  0.2860E-01  0.2860E-01  0.7702E-02  0.7702E-02  0.6133E-02  0.7702E-02  0.6133E-02
     24.181  0.4330E-02  0.2434E-01  0.2434E-01  0.2434E-01  0.2896E-02  0.2896E-02  0.1273E-01  0.2896E-02  0.1273E-01
     24.368  0.4682E-03  0.2344E-01  0.2344E-01  0.2344E-01  0.3939E-02  0.3939E-02  0.4917E-02  0.3939E-02  0.4917E-02
     24.555  0.3493E-02  0.1976E-01  0.1976E-01  0.1976E-01  0.7430E-03  0.7430E-03  0.9187E-02  0.7430E-03  0.9187E-02
     24.742  0.6526E-02  0.1749E-01  0.1749E-01  0.1749E-01  0.1010E-01  0.1010E-01  0.7118E-02  0.1010E-01  0.7118E-02