    1    1    1    1
  0.1202557E+02  0.2571621E-09  0.2571621E-09  0.2571621E-09  0.5000000E-15
  1.000000000000000E-004
  CAR 
 Cu FCC                                  
     11    250     12
 
  0.0000000E+00  0.0000000E+00  0.0000000E+00  0.4000000E-02
      1         -1.850579   1.000000
      2          4.400416   1.000000
      3          4.400417   1.000000
      4          4.400417   1.000000
      5          5.188356   1.000000
      6          5.188356   1.000000
      7         29.813272   0.000000
      8         32.317940   0.000000
      9         32.317950   0.000000
     10         32.317950   0.000000
     11         34.798297   0.000000
     12         34.798298   0.000000
 
  0.2083333E-01  0.0000000E+00  0.2083333E-01  0.4000000E-02
      1         -1.829725   1.000000
      2          4.394284   1.000000
      3          4.405291   1.000000
      4          4.405292   1.000000
      5          5.182805   1.000000
      6          5.190593   1.000000
      7         29.732032   0.000000
      8         32.040796   0.000000
      9         32.040802   0.000000
     10         32.224776   0.000000
     11         34.923838   0.000000
     12         35.086327   0.000000
 
  0.4166667E-01  0.0000000E+00  0.4166667E-01  0.4000000E-02
      1         -1.767195   1.000000
      2          4.376015   1.000000
      3          4.419881   1.000000
      4          4.419881   1.000000
      5          5.166302   1.000000
      6          5.197261   1.000000
      7         29.510058   0.000000
      8         31.422950   0.000000
      9         31.422955   0.000000
     10         31.965653   0.000000
     11         35.278558   0.000000
     12         35.736395   0.000000
 
  0.6250000E-01  0.0000000E+00  0.6250000E-01  0.4000000E-02
      1         -1.663368   1.000000
      2          4.345989   1.000000
      3          4.444117   1.000000
      4          4.444118   1.000000
      5          5.139317   1.000000
      6          5.208253   1.000000
      7         29.194264   0.000000
      8         30.689268   0.000000
      9         30.689273   0.000000
     10         31.586468   0.000000
     11         35.815102   0.000000
     12         36.522409   0.000000
 
  0.8333333E-01  0.0000000E+00  0.8333333E-01  0.4000000E-02
      1         -1.518771   1.000000
      2          4.304786   1.000000
      3          4.477862   1.000000
      4          4.477863   1.000000
      5          5.102686   1.000000
      6          5.223400   1.000000
      7         28.828810   0.000000
      8         29.921858   0.000000
      9         29.921864   0.000000
     10         31.132997   0.000000
     11         36.488670   0.000000
     12         37.360469   0.000000
 
  0.1041667E+00  0.0000000E+00  0.1041667E+00  0.4000000E-02
      1         -1.334273   1.000000
      2          4.253209   1.000000
      3          4.520865   1.000000
      4          4.520866   1.000000
      5          5.057557   1.000000
      6          5.242454   1.000000
      7         28.444544   0.000000
      8         29.150090   0.000000
      9         29.150095   0.000000
     10         30.637698   0.000000
     11         36.398090   0.000000
     12         37.267466   0.000000
 
  0.1250000E+00  0.0000000E+00  0.1250000E+00  0.4000000E-02
      1         -1.111077   1.000000
      2          4.192269   1.000000
      3          4.572849   1.000000
      4          4.572850   1.000000
      5          5.005617   1.000000
      6          5.265107   1.000000
      7         28.060602   0.000000
      8         28.386909   0.000000
      9         28.386914   0.000000
     10         30.117720   0.000000
     11         35.075963   0.000000
     12         38.131195   0.000000
 
  0.1458333E+00  0.0000000E+00  0.1458333E+00  0.4000000E-02
      1         -0.850822   1.000000
      2          4.123164   1.000000
      3          4.633472   1.000000
      4          4.633473   1.000000
      5          4.949096   1.000000
      6          5.290993   1.000000
      7         27.639278   0.000000
      8         27.639283   0.000000
      9         27.688318   0.000000
     10         29.575063   0.000000
     11         33.763434   0.000000
     12         39.067146   0.000000
 
  0.1666667E+00  0.0000000E+00  0.1666667E+00  0.4000000E-02
      1         -0.555866   1.000000
      2          4.047136   1.000000
      3          4.702158   1.000000
      4          4.702159   1.000000
      5          4.890929   1.000000
      6          5.319694   1.000000
      7         26.911777   0.000000
      8         26.911781   0.000000
      9         27.334203   0.000000
     10         28.994165   0.000000
     11         32.511645   0.000000
     12         40.067151   0.000000
 
  0.1875000E+00  0.0000000E+00  0.1875000E+00  0.4000000E-02
      1         -0.229360   1.000000
      2          3.965675   1.000000
      3          4.778344   1.000000
      4          4.778345   1.000000
      5          4.835072   1.000000
      6          5.350730   1.000000
      7         26.207838   0.000000
      8         26.207843   0.000000
      9         27.002018   0.000000
     10         28.337055   0.000000
     11         31.376524   0.000000
     12         41.125958   0.000000
 
  0.2083333E+00  0.0000000E+00  0.2083333E+00  0.4000000E-02
      1          0.124034   1.000000
      2          3.880274   1.000000
      3          4.786810   1.000000
      4          4.861280   1.000000
      5          4.861280   1.000000
      6          5.383620   1.000000
      7         25.530337   0.000000
      8         25.530342   0.000000
      9         26.693670   0.000000
     10         27.549457   0.000000
     11         30.422418   0.000000
     12         42.244371   0.000000
 
  0.2291667E+00  0.0000000E+00  0.2291667E+00  0.4000000E-02
      1          0.497741   1.000000
      2          3.792445   1.000000
      3          4.753629   1.000000
      4          4.950022   1.000000
      5          4.950022   1.000000
      6          5.417762   1.000000
      7         24.881901   0.000000
      8         24.881906   0.000000
      9         26.409981   0.000000
     10         26.601800   0.000000
     11         29.684983   0.000000
     12         43.270701   0.000000
 
  0.2500000E+00  0.0000000E+00  0.2500000E+00  0.4000000E-02
      1          0.881972   1.000000
      2          3.703693   1.000000
      3          4.745907   1.000000
      4          5.043425   1.000000
      5          5.043426   1.000000
      6          5.452597   1.000000
      7         24.265066   0.000000
      8         24.265071   0.000000
      9         25.524376   0.000000
     10         26.151041   0.000000
     11         29.137612   0.000000
     12         44.065961   0.000000
 
  0.2708333E+00  0.0000000E+00  0.2708333E+00  0.4000000E-02
      1          1.262674   1.000000
      2          3.615596   1.000000
      3          4.778158   1.000000
      4          5.140213   1.000000
      5          5.140214   1.000000
      6          5.487541   1.000000
      7         23.682384   0.000000
      8         23.682389   0.000000
      9         24.374233   0.000000
     10         25.916577   0.000000
     11         28.725409   0.000000
     12         44.878666   0.000000
 
  0.2916667E+00  0.0000000E+00  0.2916667E+00  0.4000000E-02
      1          1.620558   1.000000
      2          3.529618   1.000000
      3          4.869831   1.000000
      4          5.238833   1.000000
      5          5.238833   1.000000
      6          5.521986   1.000000
      7         23.136497   0.000000
      8         23.136502   0.000000
      9         23.196278   0.000000
     10         25.706031   0.000000
     11         28.405030   0.000000
     12         45.700123   0.000000
 
  0.3125000E+00  0.0000000E+00  0.3125000E+00  0.4000000E-02
      1          1.932904   1.000000
      2          3.447188   1.000000
      3          5.043286   1.000000
      4          5.337635   1.000000
      5          5.337635   1.000000
      6          5.555359   1.000000
      7         22.018091   0.000000
      8         22.630128   0.000000
      9         22.630133   0.000000
     10         25.518695   0.000000
     11         28.150020   0.000000
     12         46.535361   0.000000
 
  0.3333333E+00  0.0000000E+00  0.3333333E+00  0.4000000E-02
      1          2.180342   1.000000
      2          3.369634   1.000000
      3          5.316710   1.000000
      4          5.434674   1.000000
      5          5.434675   1.000000
      6          5.587058   1.000000
      7         20.856899   0.000000
      8         22.166072   0.000000
      9         22.166077   0.000000
     10         25.353783   0.000000
     11         27.944663   0.000000
     12         47.391449   0.000000
 
  0.3541667E+00  0.0000000E+00  0.3541667E+00  0.4000000E-02
      1          2.355945   1.000000
      2          3.298180   1.000000
      3          5.527861   1.000000
      4          5.527862   1.000000
      5          5.616520   1.000000
      6          5.694474   1.000000
      7         19.724989   0.000000
      8         21.747204   0.000000
      9         21.747209   0.000000
     10         25.210497   0.000000
     11         27.778998   0.000000
     12         48.030863   0.000000
 
  0.3750000E+00  0.0000000E+00  0.3750000E+00  0.4000000E-02
      1          2.467883   1.000000
      2          3.233937   1.000000
      3          5.614967   1.000000
      4          5.614968   1.000000
      5          5.643223   1.000000
      6          6.163830   1.000000
      7         18.633421   0.000000
      8         21.376429   0.000000
      9         21.376433   0.000000
     10         25.088066   0.000000
     11         27.646197   0.000000
     12         48.228900   0.000000
 
  0.3958333E+00  0.0000000E+00  0.3958333E+00  0.4000000E-02
      1          2.532374   1.000000
      2          3.177884   1.000000
      3          5.666699   1.000000
      4          5.693749   1.000000
      5          5.693750   1.000000
      6          6.700308   1.000000
      7         17.594849   0.000000
      8         21.056616   0.000000
      9         21.056620   0.000000
     10         24.985778   0.000000
     11         27.541213   0.000000
     12         48.451826   0.000000
 
  0.4166667E+00  0.0000000E+00  0.4166667E+00  0.4000000E-02
      1          2.565759   1.000000
      2          3.130856   1.000000
      3          5.686520   1.000000
      4          5.761965   1.000000
      5          5.761966   1.000000
      6          7.273141   1.000000
      7         16.626901   0.000000
      8         20.790502   0.000000
      9         20.790506   0.000000
     10         24.902998   0.000000
     11         27.460196   0.000000
     12         48.657548   0.000000
 
  0.4375000E+00  0.0000000E+00  0.4375000E+00  0.4000000E-02
      1          2.580742   1.000000
      2          3.093549   1.000000
      3          5.702334   1.000000
      4          5.817524   1.000000
      5          5.817524   1.000000
      6          7.843815   1.000000
      7         15.757732   0.000000
      8         20.580583   0.000000
      9         20.580588   0.000000
     10         24.839188   0.000000
     11         27.400170   0.000000
     12         48.835255   0.000000
 
  0.4583333E+00  0.0000000E+00  0.4583333E+00  0.4000000E-02
      1          2.586095   1.000000
      2          3.066511   1.000000
      3          5.713821   1.000000
      4          5.858636   1.000000
      5          5.858637   1.000000
      6          8.357742   1.000000
      7         15.034796   0.000000
      8         20.428985   0.000000
      9         20.428989   0.000000
     10         24.793923   0.000000
     11         27.358874   0.000000
     12         48.973479   0.000000
 
  0.4791667E+00  0.0000000E+00  0.4791667E+00  0.4000000E-02
      1          2.587311   1.000000
      2          3.050115   1.000000
      3          5.720799   1.000000
      4          5.883877   1.000000
      5          5.883878   1.000000
      6          8.733987   1.000000
      7         14.534726   0.000000
      8         20.337336   0.000000
      9         20.337340   0.000000
     10         24.766889   0.000000
     11         27.334734   0.000000
     12         49.061693   0.000000
 
  0.5000000E+00  0.0000000E+00  0.5000000E+00  0.4000000E-02
      1          2.587456   1.000000
      2          3.044627   1.000000
      3          5.723147   1.000000
      4          5.892408   1.000000
      5          5.892409   1.000000
      6          8.875810   1.000000
      7         14.351852   0.000000
      8         20.306676   0.000000
      9         20.306680   0.000000
     10         24.757898   0.000000
     11         27.326789   0.000000
     12         49.092131   0.000000
 
  0.5000000E+00  0.0000000E+00  0.5000000E+00  0.4000000E-02
      1          2.587456   1.000000
      2          3.044627   1.000000
      3          5.723147   1.000000
      4          5.892408   1.000000
      5          5.892409   1.000000
      6          8.875810   1.000000
      7         14.351852   0.000000
      8         20.306676   0.000000
      9         20.306680   0.000000
     10         24.757898   0.000000
     11         27.326789   0.000000
     12         49.092131   0.000000
 
  0.5000000E+00  0.1041667E-01  0.5104167E+00  0.4000000E-02
      1          2.589893   1.000000
      2          3.046072   1.000000
      3          5.721351   1.000000
      4          5.882772   1.000000
      5          5.892414   1.000000
      6          8.890130   1.000000
      7         14.353771   0.000000
      8         20.267219   0.000000
      9         20.282322   0.000000
     10         24.803788   0.000000
     11         27.362530   0.000000
     12         49.040460   0.000000
 
  0.5000000E+00  0.2083333E-01  0.5208333E+00  0.4000000E-02
      1          2.597181   1.000000
      2          3.050399   1.000000
      3          5.715978   1.000000
      4          5.854421   1.000000
      5          5.892427   1.000000
      6          8.932530   1.000000
      7         14.359539   0.000000
      8         20.153402   0.000000
      9         20.210836   0.000000
     10         24.936940   0.000000
     11         27.468187   0.000000
     12         48.881740   0.000000
 
  0.5000000E+00  0.3125000E-01  0.5312500E+00  0.4000000E-02
      1          2.609225   1.000000
      2          3.057611   1.000000
      3          5.707059   1.000000
      4          5.808889   1.000000
      5          5.892444   1.000000
      6          9.001454   1.000000
      7         14.369193   0.000000
      8         19.976704   0.000000
      9         20.096512   0.000000
     10         25.145890   0.000000
     11         27.639422   0.000000
     12         48.609324   0.000000
 
  0.5000000E+00  0.4166667E-01  0.5416667E+00  0.4000000E-02
      1          2.625981   1.000000
      2          3.067717   1.000000
      3          5.694629   1.000000
      4          5.748421   1.000000
      5          5.892466   1.000000
      6          9.094664   1.000000
      7         14.382788   0.000000
      8         19.751123   0.000000
      9         19.945492   0.000000
     10         25.416653   0.000000
     11         27.870031   0.000000
     12         48.223618   0.000000
 
  0.5000000E+00  0.5208333E-01  0.5520833E+00  0.4000000E-02
      1          2.647279   1.000000
      2          3.080734   1.000000
      3          5.675579   1.000000
      4          5.678773   1.000000
      5          5.892497   1.000000
      6          9.209602   1.000000
      7         14.400407   0.000000
      8         19.489664   0.000000
      9         19.764679   0.000000
     10         25.736240   0.000000
     11         28.152989   0.000000
     12         47.738673   0.000000
 
  0.5000000E+00  0.6250000E-01  0.5625000E+00  0.4000000E-02
      1          2.672915   1.000000
      2          3.096662   1.000000
      3          5.592861   1.000000
      4          5.659576   1.000000
      5          5.892528   1.000000
      6          9.343706   0.138376
      7         14.422153   0.000000
      8         19.202838   0.000000
      9         19.560896   0.000000
     10         26.094158   0.000000
     11         28.481313   0.000000
     12         47.177337   0.000000
 
  0.5000000E+00  0.7291667E-01  0.5729167E+00  0.4000000E-02
      1          2.702658   1.000000
      2          3.115536   1.000000
      3          5.502636   1.000000
      4          5.637173   1.000000
      5          5.892563   1.000000
      6          9.494613   0.000000
      7         14.448155   0.000000
      8         18.898546   0.000000
      9         19.340343   0.000000
     10         26.482498   0.000000
     11         28.848568   0.000000
     12         46.563078   0.000000
 
  0.5000000E+00  0.8333333E-01  0.5833333E+00  0.4000000E-02
      1          2.736189   1.000000
      2          3.137369   1.000000
      3          5.406942   1.000000
      4          5.611717   1.000000
      5          5.892587   1.000000
      6          9.660253   0.000000
      7         14.478558   0.000000
      8         18.582540   0.000000
      9         19.108384   0.000000
     10         26.895542   0.000000
     11         29.249135   0.000000
     12         45.914530   0.000000
 
  0.5000000E+00  0.9375000E-01  0.5937500E+00  0.4000000E-02
      1          2.773232   1.000000
      2          3.162187   1.000000
      3          5.307502   1.000000
      4          5.583412   1.000000
      5          5.892646   1.000000
      6          9.838880   0.000000
      7         14.513527   0.000000
      8         18.259016   0.000000
      9         18.869522   0.000000
     10         27.329168   0.000000
     11         29.678193   0.000000
     12         45.245045   0.000000
 
  0.5000000E+00  0.1041667E+00  0.6041667E+00  0.4000000E-02
      1          2.813347   1.000000
      2          3.189997   1.000000
      3          5.205732   1.000000
      4          5.552505   1.000000
      5          5.892688   1.000000
      6         10.029043   0.000000
      7         14.553245   0.000000
      8         17.930975   0.000000
      9         18.627423   0.000000
     10         27.780393   0.000000
     11         30.131632   0.000000
     12         44.563599   0.000000
 
  0.5000000E+00  0.1145833E+00  0.6145833E+00  0.4000000E-02
      1          2.856082   1.000000
      2          3.220833   1.000000
      3          5.102780   1.000000
      4          5.519291   1.000000
      5          5.892734   1.000000
      6         10.229555   0.000000
      7         14.597913   0.000000
      8         17.600617   0.000000
      9         18.385056   0.000000
     10         28.247062   0.000000
     11         30.605931   0.000000
     12         43.876297   0.000000
 
  0.5000000E+00  0.1250000E+00  0.6250000E+00  0.4000000E-02
      1          2.900908   1.000000
      2          3.254723   1.000000
      3          4.999576   1.000000
      4          5.484137   1.000000
      5          5.892780   1.000000
      6         10.439450   0.000000
      7         14.647744   0.000000
      8         17.269565   0.000000
      9         18.144807   0.000000
     10         28.727591   0.000000
     11         31.097986   0.000000
     12         43.187280   0.000000
 
  0.5000000E+00  0.1354167E+00  0.6354167E+00  0.4000000E-02
      1          2.947227   1.000000
      2          3.291700   1.000000
      3          4.896858   1.000000
      4          5.447475   1.000000
      5          5.892825   1.000000
      6         10.657931   0.000000
      7         14.702959   0.000000
      8         16.939030   0.000000
      9         17.908583   0.000000
     10         29.220789   0.000000
     11         31.604931   0.000000
     12         42.499410   0.000000
 
  0.5000000E+00  0.1458333E+00  0.6458333E+00  0.4000000E-02
      1          2.994357   1.000000
      2          3.331773   1.000000
      3          4.795201   1.000000
      4          5.409800   1.000000
      5          5.892872   1.000000
      6         10.884348   0.000000
      7         14.763777   0.000000
      8         16.609933   0.000000
      9         17.677924   0.000000
     10         29.725804   0.000000
     11         32.124022   0.000000
     12         41.814692   0.000000
 
  0.5000000E+00  0.1562500E+00  0.6562500E+00  0.4000000E-02
      1          3.041534   1.000000
      2          3.374991   1.000000
      3          4.695134   1.000000
      4          5.371732   1.000000
      5          5.892919   1.000000
      6         11.118178   0.000000
      7         14.830414   0.000000
      8         16.282970   0.000000
      9         17.454062   0.000000
     10         30.241986   0.000000
     11         32.652363   0.000000
     12         41.134582   0.000000
 
  0.5000000E+00  0.1666667E+00  0.6666667E+00  0.4000000E-02
      1          3.087912   1.000000
      2          3.421371   1.000000
      3          4.597016   1.000000
      4          5.333980   1.000000
      5          5.892965   1.000000
      6         11.358978   0.000000
      7         14.903059   0.000000
      8         15.958705   0.000000
      9         17.238020   0.000000
     10         30.768828   0.000000
     11         33.186679   0.000000
     12         40.460138   0.000000
 
  0.5000000E+00  0.1770833E+00  0.6770833E+00  0.4000000E-02
      1          3.132551   1.000000
      2          3.470935   1.000000
      3          4.501152   1.000000
      4          5.297325   1.000000
      5          5.893007   1.000000
      6         11.606383   0.000000
      7         14.981847   0.000000
      8         15.637585   0.000000
      9         17.030664   0.000000
     10         31.305940   0.000000
     11         33.722888   0.000000
     12         39.792157   0.000000
 
  0.5000000E+00  0.1875000E+00  0.6875000E+00  0.4000000E-02
      1          3.174438   1.000000
      2          3.523715   1.000000
      3          4.407810   1.000000
      4          5.262655   1.000000
      5          5.893045   1.000000
      6         11.860078   0.000000
      7         15.066810   0.000000
      8         15.319965   0.000000
      9         16.832782   0.000000
     10         31.853006   0.000000
     11         34.255481   0.000000
     12         39.131318   0.000000
 
  0.5000000E+00  0.1979167E+00  0.6979167E+00  0.4000000E-02
      1          3.212502   1.000000
      2          3.579740   1.000000
      3          4.317134   1.000000
      4          5.230932   1.000000
      5          5.893078   1.000000
      6         12.119796   0.000000
      7         15.006138   0.000000
      8         15.157774   0.000000
      9         16.645225   0.000000
     10         32.409794   0.000000
     11         34.776485   0.000000
     12         38.477908   0.000000
 
  0.5000000E+00  0.2083333E+00  0.7083333E+00  0.4000000E-02
      1          3.245633   1.000000
      2          3.638989   1.000000
      3          4.229309   1.000000
      4          5.203106   1.000000
      5          5.893106   1.000000
      6         12.385309   0.000000
      7         14.696351   0.000000
      8         15.254108   0.000000
      9         16.469159   0.000000
     10         32.976097   0.000000
     11         35.273671   0.000000
     12         37.832346   0.000000
 
  0.5000000E+00  0.2187500E+00  0.7187500E+00  0.4000000E-02
      1          3.272771   1.000000
      2          3.701490   1.000000
      3          4.144457   1.000000
      4          5.180187   1.000000
      5          5.893129   1.000000
      6         12.656410   0.000000
      7         14.390815   0.000000
      8         15.354157   0.000000
      9         16.306672   0.000000
     10         33.551769   0.000000
     11         35.727565   0.000000
     12         37.194916   0.000000
 
  0.5000000E+00  0.2291667E+00  0.7291667E+00  0.4000000E-02
      1          3.292942   1.000000
      2          3.767214   1.000000
      3          4.062635   1.000000
      4          5.163067   1.000000
      5          5.893141   1.000000
      6         12.932917   0.000000
      7         14.089715   0.000000
      8         15.453463   0.000000
      9         16.162539   0.000000
     10         34.136631   0.000000
     11         36.107336   0.000000
     12         36.565856   0.000000
 
  0.5000000E+00  0.2395833E+00  0.7395833E+00  0.4000000E-02
      1          3.305389   1.000000
      2          3.836228   1.000000
      3          3.983972   1.000000
      4          5.152479   1.000000
      5          5.893151   1.000000
      6         13.214661   0.000000
      7         13.793222   0.000000
      8         15.539113   0.000000
      9         16.049912   0.000000
     10         34.730625   0.000000
     11         35.945356   0.000000
     12         36.368574   0.000000
 
  0.5000000E+00  0.2500000E+00  0.7500000E+00  0.4000000E-02
      1          3.309597   1.000000
      2          3.908490   1.000000
      3          3.908491   1.000000
      4          5.148895   1.000000
      5          5.893155   1.000000
      6         13.501479   0.000000
      7         13.501483   0.000000
      8         15.577625   0.000000
      9         16.002390   0.000000
     10         35.333567   0.000000
     11         35.333569   0.000000
     12         36.463184   0.000000
 
  0.5000000E+00  0.2500000E+00  0.7500000E+00  0.4000000E-02
      1          3.309597   1.000000
      2          3.908490   1.000000
      3          3.908491   1.000000
      4          5.148895   1.000000
      5          5.893155   1.000000
      6         13.501479   0.000000
      7         13.501483   0.000000
      8         15.577625   0.000000
      9         16.002390   0.000000
     10         35.333567   0.000000
     11         35.333569   0.000000
     12         36.463184   0.000000
 
  0.4947917E+00  0.2552083E+00  0.7500000E+00  0.4000000E-02
      1          3.309021   1.000000
      2          3.871474   1.000000
      3          3.945868   1.000000
      4          5.149792   1.000000
      5          5.892572   1.000000
      6         13.359224   0.000000
      7         13.623792   0.000000
      8         15.578525   0.000000
      9         16.030034   0.000000
     10         35.002879   0.000000
     11         35.639418   0.000000
     12         36.467491   0.000000
 
  0.4895833E+00  0.2604167E+00  0.7500000E+00  0.4000000E-02
      1          3.307334   1.000000
      2          3.834449   1.000000
      3          3.984055   1.000000
      4          5.152416   1.000000
      5          5.890821   1.000000
      6         13.221828   0.000000
      7         13.701334   0.000000
      8         15.569712   0.000000
      9         16.124404   0.000000
     10         34.632659   0.000000
     11         35.949580   0.000000
     12         36.469964   0.000000
 
  0.4843750E+00  0.2656250E+00  0.7500000E+00  0.4000000E-02
      1          3.304597   1.000000
      2          3.797653   1.000000
      3          4.022945   1.000000
      4          5.156641   1.000000
      5          5.887900   1.000000
      6         13.089401   0.000000
      7         13.738450   0.000000
      8         15.545769   0.000000
      9         16.286353   0.000000
     10         34.236421   0.000000
     11         36.264050   0.000000
     12         36.463853   0.000000
 
  0.4791667E+00  0.2708333E+00  0.7500000E+00  0.4000000E-02
      1          3.300862   1.000000
      2          3.761310   1.000000
      3          4.062435   1.000000
      4          5.162326   1.000000
      5          5.883822   1.000000
      6         12.962052   0.000000
      7         13.743270   0.000000
      8         15.511917   0.000000
      9         16.502281   0.000000
     10         33.821974   0.000000
     11         36.448275   0.000000
     12         36.582821   0.000000
 
  0.4739583E+00  0.2760417E+00  0.7500000E+00  0.4000000E-02
      1          3.296191   1.000000
      2          3.725658   1.000000
      3          4.102367   1.000000
      4          5.169311   1.000000
      5          5.878596   1.000000
      6         12.839894   0.000000
      7         13.724583   0.000000
      8         15.473651   0.000000
      9         16.757645   0.000000
     10         33.394556   0.000000
     11         36.424499   0.000000
     12         36.905881   0.000000
 
  0.4687500E+00  0.2812500E+00  0.7500000E+00  0.4000000E-02
      1          3.290625   1.000000
      2          3.690951   1.000000
      3          4.142617   1.000000
      4          5.177413   1.000000
      5          5.872235   1.000000
      6         12.723042   0.000000
      7         13.689893   0.000000
      8         15.434218   0.000000
      9         17.041411   0.000000
     10         32.958018   0.000000
     11         36.394403   0.000000
     12         37.233210   0.000000
 
  0.4635417E+00  0.2864583E+00  0.7500000E+00  0.4000000E-02
      1          3.284231   1.000000
      2          3.657436   1.000000
      3          4.183032   1.000000
      4          5.186463   1.000000
      5          5.864790   1.000000
      6         12.611614   0.000000
      7         13.644910   0.000000
      8         15.395337   0.000000
      9         17.345850   0.000000
     10         32.515353   0.000000
     11         36.359871   0.000000
     12         37.564796   0.000000
 
  0.4583333E+00  0.2916667E+00  0.7500000E+00  0.4000000E-02
      1          3.277036   1.000000
      2          3.625352   1.000000
      3          4.223442   1.000000
      4          5.196267   1.000000
      5          5.856293   1.000000
      6         12.505728   0.000000
      7         13.593758   0.000000
      8         15.357911   0.000000
      9         17.665568   0.000000