PROCAR lm decomposed
# of k-points:  250         # of bands:   12         # of ions:    1

 k-point     1 :    0.00000000 0.00000000 0.00000000     weight = 0.00400000

band     1 # energy   -1.85057907 # occ.  2.00000000
 
ion      s     py     pz     px    dxy    dyz    dz2    dxz  x2-y2    tot
    1  0.575  0.000  0.000  0.000  0.000  0.000  0.000  0.000  0.000  0.575
 
band     2 # energy    4.40041609 # occ.  2.00000000
 
ion      s     py     pz     px    dxy    dyz    dz2    dxz  x2-y2    tot
    1  0.000  0.000  0.000  0.000  0.322  0.322  0.000  0.322  0.000  0.965
 
band     3 # energy    4.40041716 # occ.  2.00000000
 
ion      s     py     pz     px    dxy    dyz    dz2    dxz  x2-y2    tot
    1  0.000  0.000  0.000  0.000  0.183  0.380  0.000  0.401  0.000  0.965
 
band     4 # energy    4.40041716 # occ.  2.00000000
 
ion      s     py     pz     px    dxy    dyz    dz2    dxz  x2-y2    tot
    1  0.000  0.000  0.000  0.000  0.460  0.263  0.000  0.242  0.000  0.965
 
band     5 # energy    5.18835618 # occ.  2.00000000
 
ion      s     py     pz     px    dxy    dyz    dz2    dxz  x2-y2    tot
    1  0.000  0.000  0.000  0.000  0.000  0.000  0.520  0.000  0.466  0.986
 
band     6 # energy    5.18835618 # occ.  2.00000000
 
ion      s     py     pz     px    dxy    dyz    dz2    dxz  x2-y2    tot
    1  0.000  0.000  0.000  0.000  0.000  0.000  0.466  0.000  0.520  0.986
 
band     7 # energy   29.81327187 # occ.  0.00000000
 
ion      s     py     pz     px    dxy    dyz    dz2    dxz  x2-y2    tot
    1  0.000  0.000  0.000  0.000  0.000  0.000  0.000  0.000  0.000  0.000
 
band     8 # energy   32.31794015 # occ.  0.00000000
 
ion      s     py     pz     px    dxy    dyz    dz2    dxz  x2-y2    tot
    1  0.000  0.151  0.151  0.151  0.000  0.000  0.000  0.000  0.000  0.452
 
band     9 # energy   32.31795002 # occ.  0.00000000
 
ion      s     py     pz     px    dxy    dyz    dz2    dxz  x2-y2    tot
    1  0.000  0.102  0.072  0.278  0.000  0.000  0.000  0.000  0.000  0.452
 
band    10 # energy   32.31795002 # occ.  0.00000000
 
ion      s     py     pz     px    dxy    dyz    dz2    dxz  x2-y2    tot
    1  0.000  0.199  0.229  0.023  0.000  0.000  0.000  0.000  0.000  0.452
 
band    11 # energy   34.79829711 # occ.  0.00000000
 
ion      s     py     pz     px    dxy    dyz    dz2    dxz  x2-y2    tot
    1  0.000  0.000  0.000  0.000  0.344  0.285  0.000  0.119  0.000  0.748
 
band    12 # energy   34.79829826 # occ.  0.00000000
 
ion      s     py     pz     px    dxy    dyz    dz2    dxz  x2-y2    tot
    1  0.000  0.000  0.000  0.000  0.350  0.396  0.000  0.002  0.000  0.748
 

 k-point     2 :    0.02083333 0.00000000 0.02083333     weight = 0.00400000

band     1 # energy   -1.82972519 # occ.  2.00000000
 
ion      s     py     pz     px    dxy    dyz    dz2    dxz  x2-y2    tot
    1  0.574  0.001  0.000  0.000  0.000  0.000  0.000  0.000  0.000  0.575
 
band     2 # energy    4.39428419 # occ.  2.00000000
 
ion      s     py     pz     px    dxy    dyz    dz2    dxz  x2-y2    tot
    1  0.000  0.000  0.000  0.000  0.000  0.000  0.000  0.965  0.000  0.965
 
band     3 # energy    4.40529093 # occ.  2.00000000
 
ion      s     py     pz     px    dxy    dyz    dz2    dxz  x2-y2    tot
    1  0.000  0.000  0.000  0.000  0.482  0.482  0.000  0.000  0.000  0.965
 
band     4 # energy    4.40529164 # occ.  2.00000000
 
ion      s     py     pz     px    dxy    dyz    dz2    dxz  x2-y2    tot
    1  0.000  0.000  0.000  0.000  0.482  0.482  0.000  0.000  0.000  0.965
 
band     5 # energy    5.18280486 # occ.  2.00000000
 
ion      s     py     pz     px    dxy    dyz    dz2    dxz  x2-y2    tot
    1  0.000  0.000  0.000  0.000  0.000  0.000  0.246  0.000  0.739  0.986
 
band     6 # energy    5.19059260 # occ.  2.00000000
 
ion      s     py     pz     px    dxy    dyz    dz2    dxz  x2-y2    tot
    1  0.000  0.000  0.000  0.000  0.000  0.000  0.740  0.000  0.247  0.986
 
band     7 # energy   29.73203164 # occ.  0.00000000
 
ion      s     py     pz     px    dxy    dyz    dz2    dxz  x2-y2    tot
    1  0.000  0.000  0.000  0.000  0.000  0.000  0.000  0.020  0.000  0.020
 
band     8 # energy   32.04079560 # occ.  0.00000000
 
ion      s     py     pz     px    dxy    dyz    dz2    dxz  x2-y2    tot
    1  0.000  0.000  0.212  0.212  0.033  0.033  0.000  0.000  0.000  0.490
 
band     9 # energy   32.04080176 # occ.  0.00000000
 
ion      s     py     pz     px    dxy    dyz    dz2    dxz  x2-y2    tot
    1  0.000  0.000  0.212  0.212  0.033  0.033  0.000  0.000  0.000  0.490
 
band    10 # energy   32.22477623 # occ.  0.00000000
 
ion      s     py     pz     px    dxy    dyz    dz2    dxz  x2-y2    tot
    1  0.005  0.436  0.000  0.000  0.000  0.000  0.001  0.000  0.002  0.443
 
band    11 # energy   34.92383769 # occ.  0.00000000
 
ion      s     py     pz     px    dxy    dyz    dz2    dxz  x2-y2    tot
    1  0.000  0.000  0.000  0.000  0.000  0.000  0.000  0.728  0.000  0.728
 
band    12 # energy   35.08632730 # occ.  0.00000000
 
ion      s     py     pz     px    dxy    dyz    dz2    dxz  x2-y2    tot
    1  0.000  0.000  0.021  0.006  0.150  0.528  0.000  0.000  0.000  0.704
 

 k-point     3 :    0.04166667 0.00000000 0.04166667     weight = 0.00400000

band     1 # energy   -1.76719515 # occ.  2.00000000
 
ion      s     py     pz     px    dxy    dyz    dz2    dxz  x2-y2    tot
    1  0.571  0.004  0.000  0.000  0.000  0.000  0.000  0.000  0.000  0.575
 
band     2 # energy    4.37601469 # occ.  2.00000000
 
ion      s     py     pz     px    dxy    dyz    dz2    dxz  x2-y2    tot
    1  0.000  0.000  0.000  0.000  0.000  0.000  0.000  0.964  0.000  0.964
 
band     3 # energy    4.41988055 # occ.  2.00000000
 
ion      s     py     pz     px    dxy    dyz    dz2    dxz  x2-y2    tot
    1  0.000  0.000  0.000  0.000  0.482  0.482  0.000  0.000  0.000  0.965
 
band     4 # energy    4.41988127 # occ.  2.00000000
 
ion      s     py     pz     px    dxy    dyz    dz2    dxz  x2-y2    tot
    1  0.000  0.000  0.000  0.000  0.482  0.482  0.000  0.000  0.000  0.965
 
band     5 # energy    5.16630181 # occ.  2.00000000
 
ion      s     py     pz     px    dxy    dyz    dz2    dxz  x2-y2    tot
    1  0.000  0.000  0.000  0.000  0.000  0.000  0.246  0.000  0.739  0.985
 
band     6 # energy    5.19726053 # occ.  2.00000000
 
ion      s     py     pz     px    dxy    dyz    dz2    dxz  x2-y2    tot
    1  0.000  0.000  0.000  0.000  0.000  0.000  0.740  0.000  0.247  0.986
 
band     7 # energy   29.51005833 # occ.  0.00000000
 
ion      s     py     pz     px    dxy    dyz    dz2    dxz  x2-y2    tot
    1  0.000  0.000  0.000  0.000  0.000  0.000  0.000  0.070  0.000  0.070
 
band     8 # energy   31.42294954 # occ.  0.00000000
 
ion      s     py     pz     px    dxy    dyz    dz2    dxz  x2-y2    tot
    1  0.000  0.000  0.198  0.198  0.072  0.072  0.000  0.000  0.000  0.542
 
band     9 # energy   31.42295516 # occ.  0.00000000
 
ion      s     py     pz     px    dxy    dyz    dz2    dxz  x2-y2    tot
    1  0.000  0.000  0.198  0.198  0.072  0.072  0.000  0.000  0.000  0.542
 
band    10 # energy   31.96565284 # occ.  0.00000000
 
ion      s     py     pz     px    dxy    dyz    dz2    dxz  x2-y2    tot
    1  0.018  0.394  0.000  0.000  0.000  0.000  0.002  0.000  0.006  0.420
 
band    11 # energy   35.27855847 # occ.  0.00000000
 
ion      s     py     pz     px    dxy    dyz    dz2    dxz  x2-y2    tot
    1  0.000  0.000  0.000  0.000  0.000  0.000  0.000  0.678  0.000  0.678
 
band    12 # energy   35.73639485 # occ.  0.00000000
 
ion      s     py     pz     px    dxy    dyz    dz2    dxz  x2-y2    tot
    1  0.000  0.000  0.039  0.013  0.147  0.436  0.000  0.000  0.000  0.635
 

 k-point     4 :    0.06250000 0.00000000 0.06250000     weight = 0.00400000

band     1 # energy   -1.66336779 # occ.  2.00000000
 
ion      s     py     pz     px    dxy    dyz    dz2    dxz  x2-y2    tot
    1  0.566  0.009  0.000  0.000  0.000  0.000  0.000  0.000  0.000  0.575
 
band     2 # energy    4.34598884 # occ.  2.00000000
 
ion      s     py     pz     px    dxy    dyz    dz2    dxz  x2-y2    tot
    1  0.000  0.000  0.000  0.000  0.000  0.000  0.000  0.962  0.000  0.962
 
band     3 # energy    4.44411721 # occ.  2.00000000
 
ion      s     py     pz     px    dxy    dyz    dz2    dxz  x2-y2    tot
    1  0.000  0.000  0.000  0.000  0.482  0.482  0.000  0.000  0.000  0.965
 
band     4 # energy    4.44411793 # occ.  2.00000000
 
ion      s     py     pz     px    dxy    dyz    dz2    dxz  x2-y2    tot
    1  0.000  0.000  0.000  0.000  0.482  0.482  0.000  0.000  0.000  0.965
 
band     5 # energy    5.13931664 # occ.  2.00000000
 
ion      s     py     pz     px    dxy    dyz    dz2    dxz  x2-y2    tot
    1  0.000  0.000  0.000  0.000  0.000  0.000  0.246  0.000  0.738  0.984
 
band     6 # energy    5.20825328 # occ.  2.00000000
 
ion      s     py     pz     px    dxy    dyz    dz2    dxz  x2-y2    tot
    1  0.000  0.000  0.000  0.000  0.000  0.000  0.740  0.000  0.247  0.986
 
band     7 # energy   29.19426411 # occ.  0.00000000
 
ion      s     py     pz     px    dxy    dyz    dz2    dxz  x2-y2    tot
    1  0.000  0.000  0.000  0.000  0.000  0.000  0.000  0.131  0.000  0.131
 
band     8 # energy   30.68926767 # occ.  0.00000000
 
ion      s     py     pz     px    dxy    dyz    dz2    dxz  x2-y2    tot
    1  0.000  0.000  0.195  0.195  0.094  0.094  0.000  0.000  0.000  0.577
 
band     9 # energy   30.68927296 # occ.  0.00000000
 
ion      s     py     pz     px    dxy    dyz    dz2    dxz  x2-y2    tot
    1  0.000  0.000  0.195  0.195  0.094  0.094  0.000  0.000  0.000  0.577
 
band    10 # energy   31.58646781 # occ.  0.00000000
 
ion      s     py     pz     px    dxy    dyz    dz2    dxz  x2-y2    tot
    1  0.035  0.339  0.000  0.000  0.000  0.000  0.005  0.000  0.014  0.391
 
band    11 # energy   35.81510224 # occ.  0.00000000
 
ion      s     py     pz     px    dxy    dyz    dz2    dxz  x2-y2    tot
    1  0.000  0.000  0.000  0.000  0.000  0.000  0.000  0.619  0.000  0.619
 
band    12 # energy   36.52240922 # occ.  0.00000000
 
ion      s     py     pz     px    dxy    dyz    dz2    dxz  x2-y2    tot
    1  0.000  0.000  0.003  0.054  0.491  0.024  0.000  0.000  0.000  0.572
 

 k-point     5 :    0.08333333 0.00000000 0.08333333     weight = 0.00400000

band     1 # energy   -1.51877058 # occ.  2.00000000
 
ion      s     py     pz     px    dxy    dyz    dz2    dxz  x2-y2    tot
    1  0.559  0.016  0.000  0.000  0.000  0.000  0.000  0.000  0.000  0.575
 
band     2 # energy    4.30478571 # occ.  2.00000000
 
ion      s     py     pz     px    dxy    dyz    dz2    dxz  x2-y2    tot
    1  0.000  0.000  0.000  0.000  0.000  0.000  0.000  0.960  0.000  0.960
 
band     3 # energy    4.47786205 # occ.  2.00000000
 
ion      s     py     pz     px    dxy    dyz    dz2    dxz  x2-y2    tot
    1  0.000  0.000  0.001  0.001  0.482  0.482  0.000  0.000  0.000  0.966
 
band     4 # energy    4.47786277 # occ.  2.00000000
 
ion      s     py     pz     px    dxy    dyz    dz2    dxz  x2-y2    tot
    1  0.000  0.000  0.001  0.001  0.482  0.482  0.000  0.000  0.000  0.966
 
band     5 # energy    5.10268644 # occ.  2.00000000
 
ion      s     py     pz     px    dxy    dyz    dz2    dxz  x2-y2    tot
    1  0.000  0.000  0.000  0.000  0.000  0.000  0.245  0.000  0.736  0.982
 
band     6 # energy    5.22339963 # occ.  2.00000000
 
ion      s     py     pz     px    dxy    dyz    dz2    dxz  x2-y2    tot
    1  0.000  0.000  0.000  0.000  0.000  0.000  0.740  0.000  0.247  0.987
 
band     7 # energy   28.82881047 # occ.  0.00000000
 
ion      s     py     pz     px    dxy    dyz    dz2    dxz  x2-y2    tot
    1  0.000  0.000  0.000  0.000  0.000  0.000  0.000  0.189  0.000  0.189
 
band     8 # energy   29.92185841 # occ.  0.00000000
 
ion      s     py     pz     px    dxy    dyz    dz2    dxz  x2-y2    tot
    1  0.000  0.000  0.196  0.196  0.103  0.103  0.000  0.000  0.000  0.600
 
band     9 # energy   29.92186350 # occ.  0.00000000
 
ion      s     py     pz     px    dxy    dyz    dz2    dxz  x2-y2    tot
    1  0.000  0.000  0.196  0.196  0.103  0.103  0.000  0.000  0.000  0.600
 
band    10 # energy   31.13299705 # occ.  0.00000000
 
ion      s     py     pz     px    dxy    dyz    dz2    dxz  x2-y2    tot
    1  0.051  0.279  0.000  0.000  0.000  0.000  0.008  0.000  0.025  0.363
 
band    11 # energy   36.48867011 # occ.  0.00000000
 
ion      s     py     pz     px    dxy    dyz    dz2    dxz  x2-y2    tot
    1  0.000  0.000  0.000  0.000  0.000  0.000  0.000  0.561  0.000  0.561
 
band    12 # energy   37.36046916 # occ.  0.00000000
 
ion      s     py     pz     px    dxy    dyz    dz2    dxz  x2-y2    tot
    1  0.000  0.000  0.036  0.013  0.122  0.337  0.000  0.000  0.000  0.509
 

 k-point     6 :    0.10416667 0.00000000 0.10416667     weight = 0.00400000

band     1 # energy   -1.33427266 # occ.  2.00000000
 
ion      s     py     pz     px    dxy    dyz    dz2    dxz  x2-y2    tot
    1  0.549  0.025  0.000  0.000  0.000  0.000  0.000  0.000  0.001  0.576
 
band     2 # energy    4.25320897 # occ.  2.00000000
 
ion      s     py     pz     px    dxy    dyz    dz2    dxz  x2-y2    tot
    1  0.000  0.000  0.000  0.000  0.000  0.000  0.000  0.958  0.000  0.958
 
band     3 # energy    4.52086482 # occ.  2.00000000
 
ion      s     py     pz     px    dxy    dyz    dz2    dxz  x2-y2    tot
    1  0.000  0.000  0.001  0.001  0.482  0.482  0.000  0.000  0.000  0.966
 
band     4 # energy    4.52086554 # occ.  2.00000000
 
ion      s     py     pz     px    dxy    dyz    dz2    dxz  x2-y2    tot
    1  0.000  0.000  0.001  0.001  0.482  0.482  0.000  0.000  0.000  0.966
 
band     5 # energy    5.05755724 # occ.  2.00000000
 
ion      s     py     pz     px    dxy    dyz    dz2    dxz  x2-y2    tot
    1  0.001  0.000  0.000  0.000  0.000  0.000  0.245  0.000  0.734  0.980
 
band     6 # energy    5.24245404 # occ.  2.00000000
 
ion      s     py     pz     px    dxy    dyz    dz2    dxz  x2-y2    tot
    1  0.000  0.000  0.000  0.000  0.000  0.000  0.740  0.000  0.247  0.987
 
band     7 # energy   28.44454400 # occ.  0.00000000
 
ion      s     py     pz     px    dxy    dyz    dz2    dxz  x2-y2    tot
    1  0.000  0.000  0.000  0.000  0.000  0.000  0.000  0.242  0.000  0.242
 
band     8 # energy   29.15009014 # occ.  0.00000000
 
ion      s     py     pz     px    dxy    dyz    dz2    dxz  x2-y2    tot
    1  0.000  0.000  0.201  0.201  0.106  0.106  0.000  0.000  0.000  0.614
 
band     9 # energy   29.15009510 # occ.  0.00000000
 
ion      s     py     pz     px    dxy    dyz    dz2    dxz  x2-y2    tot
    1  0.000  0.000  0.201  0.201  0.106  0.106  0.000  0.000  0.000  0.614
 
band    10 # energy   30.63769750 # occ.  0.00000000
 
ion      s     py     pz     px    dxy    dyz    dz2    dxz  x2-y2    tot
    1  0.064  0.218  0.000  0.000  0.000  0.000  0.013  0.000  0.040  0.335
 
band    11 # energy   36.39809010 # occ.  0.00000000
 
ion      s     py     pz     px    dxy    dyz    dz2    dxz  x2-y2    tot
    1  0.022  0.502  0.000  0.000  0.000  0.000  0.044  0.000  0.132  0.699
 
band    12 # energy   37.26746634 # occ.  0.00000000
 
ion      s     py     pz     px    dxy    dyz    dz2    dxz  x2-y2    tot
    1  0.000  0.000  0.000  0.000  0.000  0.000  0.000  0.509  0.000  0.509
 

 k-point     7 :    0.12500000 0.00000000 0.12500000     weight = 0.00400000

band     1 # energy   -1.11107654 # occ.  2.00000000
 
ion      s     py     pz     px    dxy    dyz    dz2    dxz  x2-y2    tot
    1  0.538  0.036  0.000  0.000  0.000  0.000  0.001  0.000  0.002  0.576
 
band     2 # energy    4.19226942 # occ.  2.00000000
 
ion      s     py     pz     px    dxy    dyz    dz2    dxz  x2-y2    tot
    1  0.000  0.000  0.000  0.000  0.000  0.000  0.000  0.955  0.000  0.955
 
band     3 # energy    4.57284932 # occ.  2.00000000
 
ion      s     py     pz     px    dxy    dyz    dz2    dxz  x2-y2    tot
    1  0.000  0.000  0.001  0.001  0.482  0.482  0.000  0.000  0.000  0.967
 
band     4 # energy    4.57285004 # occ.  2.00000000
 
ion      s     py     pz     px    dxy    dyz    dz2    dxz  x2-y2    tot
    1  0.000  0.000  0.001  0.001  0.482  0.482  0.000  0.000  0.000  0.967
 
band     5 # energy    5.00561704 # occ.  2.00000000
 
ion      s     py     pz     px    dxy    dyz    dz2    dxz  x2-y2    tot
    1  0.001  0.000  0.000  0.000  0.000  0.000  0.244  0.000  0.731  0.977
 
band     6 # energy    5.26510660 # occ.  2.00000000
 
ion      s     py     pz     px    dxy    dyz    dz2    dxz  x2-y2    tot
    1  0.000  0.000  0.000  0.000  0.000  0.000  0.740  0.000  0.247  0.987
 
band     7 # energy   28.06060171 # occ.  0.00000000
 
ion      s     py     pz     px    dxy    dyz    dz2    dxz  x2-y2    tot
    1  0.000  0.000  0.000  0.000  0.000  0.000  0.000  0.289  0.000  0.289
 
band     8 # energy   28.38690941 # occ.  0.00000000
 
ion      s     py     pz     px    dxy    dyz    dz2    dxz  x2-y2    tot
    1  0.000  0.000  0.207  0.207  0.105  0.105  0.000  0.000  0.000  0.624
 
band     9 # energy   28.38691428 # occ.  0.00000000
 
ion      s     py     pz     px    dxy    dyz    dz2    dxz  x2-y2    tot
    1  0.000  0.000  0.207  0.207  0.105  0.105  0.000  0.000  0.000  0.624
 
band    10 # energy   30.11771978 # occ.  0.00000000
 
ion      s     py     pz     px    dxy    dyz    dz2    dxz  x2-y2    tot
    1  0.072  0.157  0.000  0.000  0.000  0.000  0.020  0.000  0.060  0.309
 
band    11 # energy   35.07596270 # occ.  0.00000000
 
ion      s     py     pz     px    dxy    dyz    dz2    dxz  x2-y2    tot
    1  0.047  0.527  0.000  0.000  0.000  0.000  0.043  0.000  0.128  0.745
 
band    12 # energy   38.13119459 # occ.  0.00000000
 
ion      s     py     pz     px    dxy    dyz    dz2    dxz  x2-y2    tot
    1  0.000  0.000  0.000  0.000  0.000  0.000  0.000  0.464  0.000  0.464
 

 k-point     8 :    0.14583333 0.00000000 0.14583333     weight = 0.00400000

band     1 # energy   -0.85082215 # occ.  2.00000000
 
ion      s     py     pz     px    dxy    dyz    dz2    dxz  x2-y2    tot
    1  0.524  0.048  0.000  0.000  0.000  0.000  0.001  0.000  0.003  0.577
 
band     2 # energy    4.12316410 # occ.  2.00000000
 
ion      s     py     pz     px    dxy    dyz    dz2    dxz  x2-y2    tot
    1  0.000  0.000  0.000  0.000  0.000  0.000  0.000  0.951  0.000  0.951
 
band     3 # energy    4.63347219 # occ.  2.00000000
 
ion      s     py     pz     px    dxy    dyz    dz2    dxz  x2-y2    tot
    1  0.000  0.000  0.002  0.002  0.482  0.482  0.000  0.000  0.000  0.968
 
band     4 # energy    4.63347291 # occ.  2.00000000
 
ion      s     py     pz     px    dxy    dyz    dz2    dxz  x2-y2    tot
    1  0.000  0.000  0.002  0.002  0.482  0.482  0.000  0.000  0.000  0.968
 
band     5 # energy    4.94909586 # occ.  2.00000000
 
ion      s     py     pz     px    dxy    dyz    dz2    dxz  x2-y2    tot
    1  0.003  0.001  0.000  0.000  0.000  0.000  0.242  0.000  0.727  0.973
 
band     6 # energy    5.29099292 # occ.  2.00000000
 
ion      s     py     pz     px    dxy    dyz    dz2    dxz  x2-y2    tot
    1  0.000  0.000  0.000  0.000  0.000  0.000  0.741  0.000  0.247  0.988
 
band     7 # energy   27.63927782 # occ.  0.00000000
 
ion      s     py     pz     px    dxy    dyz    dz2    dxz  x2-y2    tot
    1  0.000  0.000  0.214  0.214  0.101  0.101  0.000  0.000  0.000  0.630
 
band     8 # energy   27.63928262 # occ.  0.00000000
 
ion      s     py     pz     px    dxy    dyz    dz2    dxz  x2-y2    tot
    1  0.000  0.000  0.214  0.214  0.101  0.101  0.000  0.000  0.000  0.630
 
band     9 # energy   27.68831803 # occ.  0.00000000
 
ion      s     py     pz     px    dxy    dyz    dz2    dxz  x2-y2    tot
    1  0.000  0.000  0.000  0.000  0.000  0.000  0.000  0.330  0.000  0.330
 
band    10 # energy   29.57506257 # occ.  0.00000000
 
ion      s     py     pz     px    dxy    dyz    dz2    dxz  x2-y2    tot
    1  0.072  0.097  0.000  0.000  0.000  0.000  0.029  0.000  0.087  0.285
 
band    11 # energy   33.76343373 # occ.  0.00000000
 
ion      s     py     pz     px    dxy    dyz    dz2    dxz  x2-y2    tot
    1  0.081  0.553  0.000  0.000  0.000  0.000  0.037  0.000  0.110  0.781
 
band    12 # energy   39.06714570 # occ.  0.00000000
 
ion      s     py     pz     px    dxy    dyz    dz2    dxz  x2-y2    tot
    1  0.000  0.000  0.000  0.000  0.000  0.000  0.000  0.424  0.000  0.424
 

 k-point     9 :    0.16666667 0.00000000 0.16666667     weight = 0.00400000

band     1 # energy   -0.55586577 # occ.  2.00000000
 
ion      s     py     pz     px    dxy    dyz    dz2    dxz  x2-y2    tot
    1  0.507  0.062  0.000  0.000  0.000  0.000  0.002  0.000  0.007  0.578
 
band     2 # energy    4.04713615 # occ.  2.00000000
 
ion      s     py     pz     px    dxy    dyz    dz2    dxz  x2-y2    tot
    1  0.000  0.000  0.000  0.000  0.000  0.000  0.000  0.948  0.000  0.948
 
band     3 # energy    4.70215824 # occ.  2.00000000
 
ion      s     py     pz     px    dxy    dyz    dz2    dxz  x2-y2    tot
    1  0.000  0.000  0.002  0.002  0.482  0.482  0.000  0.000  0.000  0.969
 
band     4 # energy    4.70215896 # occ.  2.00000000
 
ion      s     py     pz     px    dxy    dyz    dz2    dxz  x2-y2    tot
    1  0.000  0.000  0.002  0.002  0.482  0.482  0.000  0.000  0.000  0.969
 
band     5 # energy    4.89092902 # occ.  2.00000000
 
ion      s     py     pz     px    dxy    dyz    dz2    dxz  x2-y2    tot
    1  0.005  0.002  0.000  0.000  0.000  0.000  0.241  0.000  0.722  0.969
 
band     6 # energy    5.31969367 # occ.  2.00000000
 
ion      s     py     pz     px    dxy    dyz    dz2    dxz  x2-y2    tot
    1  0.000  0.000  0.000  0.000  0.000  0.000  0.741  0.000  0.247  0.988
 
band     7 # energy   26.91177654 # occ.  0.00000000
 
ion      s     py     pz     px    dxy    dyz    dz2    dxz  x2-y2    tot
    1  0.000  0.000  0.221  0.221  0.095  0.095  0.000  0.000  0.000  0.632
 
band     8 # energy   26.91178127 # occ.  0.00000000
 
ion      s     py     pz     px    dxy    dyz    dz2    dxz  x2-y2    tot
    1  0.000  0.000  0.221  0.221  0.095  0.095  0.000  0.000  0.000  0.632
 
band     9 # energy   27.33420267 # occ.  0.00000000
 
ion      s     py     pz     px    dxy    dyz    dz2    dxz  x2-y2    tot
    1  0.000  0.000  0.000  0.000  0.000  0.000  0.000  0.366  0.000  0.366
 
band    10 # energy   28.99416461 # occ.  0.00000000
 
ion      s     py     pz     px    dxy    dyz    dz2    dxz  x2-y2    tot
    1  0.062  0.041  0.000  0.000  0.000  0.000  0.040  0.000  0.121  0.265
 
band    11 # energy   32.51164450 # occ.  0.00000000
 
ion      s     py     pz     px    dxy    dyz    dz2    dxz  x2-y2    tot
    1  0.125  0.576  0.000  0.000  0.000  0.000  0.027  0.000  0.082  0.811
 
band    12 # energy   40.06715057 # occ.  0.00000000
 
ion      s     py     pz     px    dxy    dyz    dz2    dxz  x2-y2    tot
    1  0.000  0.000  0.000  0.000  0.000  0.000  0.000  0.389  0.000  0.389
 

 k-point    10 :    0.18750000 0.00000000 0.18750000     weight = 0.00400000

band     1 # energy   -0.22936012 # occ.  2.00000000
 
ion      s     py     pz     px    dxy    dyz    dz2    dxz  x2-y2    tot
    1  0.487  0.077  0.000  0.000  0.000  0.000  0.004  0.000  0.012  0.579
 
band     2 # energy    3.96567473 # occ.  2.00000000
 
ion      s     py     pz     px    dxy    dyz    dz2    dxz  x2-y2    tot
    1  0.000  0.000  0.000  0.000  0.000  0.000  0.000  0.944  0.000  0.944
 
band     3 # energy    4.77834436 # occ.  2.00000000
 
ion      s     py     pz     px    dxy    dyz    dz2    dxz  x2-y2    tot
    1  0.000  0.000  0.002  0.002  0.482  0.482  0.000  0.000  0.000  0.970
 
band     4 # energy    4.77834507 # occ.  2.00000000
 
ion      s     py     pz     px    dxy    dyz    dz2    dxz  x2-y2    tot
    1  0.000  0.000  0.002  0.002  0.482  0.482  0.000  0.000  0.000  0.970
 
band     5 # energy    4.83507164 # occ.  2.00000000
 
ion      s     py     pz     px    dxy    dyz    dz2    dxz  x2-y2    tot
    1  0.008  0.004  0.000  0.000  0.000  0.000  0.238  0.000  0.713  0.964
 
band     6 # energy    5.35073031 # occ.  2.00000000
 
ion      s     py     pz     px    dxy    dyz    dz2    dxz  x2-y2    tot
    1  0.000  0.000  0.000  0.000  0.000  0.000  0.741  0.000  0.247  0.989
 
band     7 # energy   26.20783831 # occ.  0.00000000
 
ion      s     py     pz     px    dxy    dyz    dz2    dxz  x2-y2    tot
    1  0.000  0.000  0.228  0.228  0.089  0.089  0.000  0.000  0.000  0.633
 
band     8 # energy   26.20784300 # occ.  0.00000000
 
ion      s     py     pz     px    dxy    dyz    dz2    dxz  x2-y2    tot
    1  0.000  0.000  0.228  0.228  0.089  0.089  0.000  0.000  0.000  0.633
 
band     9 # energy   27.00201816 # occ.  0.00000000
 
ion      s     py     pz     px    dxy    dyz    dz2    dxz  x2-y2    tot
    1  0.000  0.000  0.000  0.000  0.000  0.000  0.000  0.398  0.000  0.398
 
band    10 # energy   28.33705512 # occ.  0.00000000
 
ion      s     py     pz     px    dxy    dyz    dz2    dxz  x2-y2    tot
    1  0.039  0.004  0.000  0.000  0.000  0.000  0.054  0.000  0.163  0.260
 
band    11 # energy   31.37652388 # occ.  0.00000000
 
ion      s     py     pz     px    dxy    dyz    dz2    dxz  x2-y2    tot
    1  0.182  0.582  0.000  0.000  0.000  0.000  0.015  0.000  0.046  0.826
 
band    12 # energy   41.12595828 # occ.  0.00000000
 
ion      s     py     pz     px    dxy    dyz    dz2    dxz  x2-y2    tot
    1  0.000  0.000  0.000  0.000  0.000  0.000  0.000  0.357  0.000  0.357
 

 k-point    11 :    0.20833333 0.00000000 0.20833333     weight = 0.00400000

band     1 # energy    0.12403355 # occ.  2.00000000
 
ion      s     py     pz     px    dxy    dyz    dz2    dxz  x2-y2    tot
    1  0.464  0.091  0.000  0.000  0.000  0.000  0.007  0.000  0.020  0.582
 
band     2 # energy    3.88027395 # occ.  2.00000000
 
ion      s     py     pz     px    dxy    dyz    dz2    dxz  x2-y2    tot
    1  0.000  0.000  0.000  0.000  0.000  0.000  0.000  0.940  0.000  0.940
 
band     3 # energy    4.78681013 # occ.  2.00000000
 
ion      s     py     pz     px    dxy    dyz    dz2    dxz  x2-y2    tot
    1  0.014  0.007  0.000  0.000  0.000  0.000  0.234  0.000  0.702  0.956
 
band     4 # energy    4.86127976 # occ.  2.00000000
 
ion      s     py     pz     px    dxy    dyz    dz2    dxz  x2-y2    tot
    1  0.000  0.000  0.003  0.003  0.483  0.483  0.000  0.000  0.000  0.971
 
band     5 # energy    4.86128048 # occ.  2.00000000
 
ion      s     py     pz     px    dxy    dyz    dz2    dxz  x2-y2    tot
    1  0.000  0.000  0.003  0.003  0.483  0.483  0.000  0.000  0.000  0.971
 
band     6 # energy    5.38362034 # occ.  2.00000000
 
ion      s     py     pz     px    dxy    dyz    dz2    dxz  x2-y2    tot
    1  0.000  0.000  0.000  0.000  0.000  0.000  0.742  0.000  0.247  0.989
 
band     7 # energy   25.53033725 # occ.  0.00000000
 
ion      s     py     pz     px    dxy    dyz    dz2    dxz  x2-y2    tot
    1  0.000  0.000  0.235  0.235  0.081  0.081  0.000  0.000  0.000  0.632
 
band     8 # energy   25.53034189 # occ.  0.00000000
 
ion      s     py     pz     px    dxy    dyz    dz2    dxz  x2-y2    tot
    1  0.000  0.000  0.235  0.235  0.081  0.081  0.000  0.000  0.000  0.632
 
band     9 # energy   26.69367017 # occ.  0.00000000
 
ion      s     py     pz     px    dxy    dyz    dz2    dxz  x2-y2    tot
    1  0.000  0.000  0.000  0.000  0.000  0.000  0.000  0.428  0.000  0.428
 
band    10 # energy   27.54945682 # occ.  0.00000000
 
ion      s     py     pz     px    dxy    dyz    dz2    dxz  x2-y2    tot
    1  0.013  0.009  0.000  0.000  0.000  0.000  0.067  0.000  0.200  0.289
 
band    11 # energy   30.42241777 # occ.  0.00000000
 
ion      s     py     pz     px    dxy    dyz    dz2    dxz  x2-y2    tot
    1  0.242  0.547  0.000  0.000  0.000  0.000  0.005  0.000  0.014  0.809
 
band    12 # energy   42.24437056 # occ.  0.00000000
 
ion      s     py     pz     px    dxy    dyz    dz2    dxz  x2-y2    tot
    1  0.000  0.000  0.000  0.000  0.000  0.002  0.000  0.322  0.000  0.324
 

 k-point    12 :    0.22916667 0.00000000 0.22916667     weight = 0.00400000

band     1 # energy    0.49774061 # occ.  2.00000000
 
ion      s     py     pz     px    dxy    dyz    dz2    dxz  x2-y2    tot
    1  0.437  0.105  0.000  0.000  0.000  0.000  0.011  0.000  0.033  0.587
 
band     2 # energy    3.79244451 # occ.  2.00000000
 
ion      s     py     pz     px    dxy    dyz    dz2    dxz  x2-y2    tot
    1  0.000  0.000  0.000  0.000  0.000  0.000  0.000  0.937  0.000  0.937
 
band     3 # energy    4.75362855 # occ.  2.00000000
 
ion      s     py     pz     px    dxy    dyz    dz2    dxz  x2-y2    tot
    1  0.022  0.013  0.000  0.000  0.000  0.000  0.228  0.000  0.684  0.947
 
band     4 # energy    4.95002159 # occ.  2.00000000
 
ion      s     py     pz     px    dxy    dyz    dz2    dxz  x2-y2    tot
    1  0.000  0.000  0.003  0.003  0.483  0.483  0.000  0.000  0.000  0.973
 
band     5 # energy    4.95002230 # occ.  2.00000000
 
ion      s     py     pz     px    dxy    dyz    dz2    dxz  x2-y2    tot
    1  0.000  0.000  0.003  0.003  0.483  0.483  0.000  0.000  0.000  0.973
 
band     6 # energy    5.41776196 # occ.  2.00000000
 
ion      s     py     pz     px    dxy    dyz    dz2    dxz  x2-y2    tot
    1  0.000  0.000  0.000  0.000  0.000  0.000  0.742  0.000  0.247  0.990
 
band     7 # energy   24.88190106 # occ.  0.00000000
 
ion      s     py     pz     px    dxy    dyz    dz2    dxz  x2-y2    tot
    1  0.000  0.000  0.241  0.241  0.073  0.073  0.000  0.000  0.000  0.630
 
band     8 # energy   24.88190566 # occ.  0.00000000
 
ion      s     py     pz     px    dxy    dyz    dz2    dxz  x2-y2    tot