<?xml version="1.0" encoding="ISO-8859-1"?>
<modeling>
 <generator>
  <i name="program" type="string">vasp </i>
  <i name="version" type="string">6.4.2  </i>
  <i name="subversion" type="string">20Jul23 (build Oct 16 2024 22:45:58) complex                          parallel </i>
  <i name="platform" type="string">LinuxIFC </i>
  <i name="date" type="string">2025 02 15 </i>
  <i name="time" type="string">11:18:35 </i>
 </generator>
 <incar>
  <i type="string" name="SYSTEM">Cu FCC</i>
  <i type="string" name="PREC">Accurate</i>
  <i type="int" name="ICHARG">    11</i>
  <i type="int" name="IBRION">    -1</i>
  <i name="EDIFF">      0.00000000</i>
  <i name="EDIFFG">     -0.00001000</i>
  <i type="int" name="NSW">     0</i>
  <i type="int" name="ISIF">     0</i>
  <i name="ENCUT">    520.00000000</i>
  <i type="int" name="ISMEAR">     0</i>
  <i name="SIGMA">      0.03000000</i>
  <i type="logical" name="LWAVE"> F  </i>
  <i type="int" name="LORBIT">    11</i>
  <i type="string" name="GGA">PE</i>
 </incar>
 <primitive_cell>
  <structure name="primitive_cell" >
   <crystal>
    <varray name="basis" >
     <v>       0.00000000       1.81841034       1.81841034 </v>
     <v>       1.81841034       0.00000000       1.81841034 </v>
     <v>       1.81841034       1.81841034       0.00000000 </v>
    </varray>
    <i name="volume">     12.02556998 </i>
    <varray name="rec_basis" >
     <v>      -0.27496544       0.27496544       0.27496544 </v>
     <v>       0.27496544      -0.27496544       0.27496544 </v>
     <v>       0.27496544       0.27496544      -0.27496544 </v>
    </varray>
   </crystal>
   <varray name="positions" >
    <v>       0.00000000       0.00000000       0.00000000 </v>
   </varray>
  </structure>
  <varray name="primitive_index" >
   <v type="int" >        1 </v>
  </varray>
 </primitive_cell>
 <kpoints>
  <generation param="listgenerated">
   <i name="divisions" type="int">      25 </i>
   <v>       0.00000000       0.00000000       0.00000000 </v>
   <v>       0.50000000       0.00000000       0.50000000 </v>
   <v>       0.50000000       0.25000000       0.75000000 </v>
   <v>       0.37500000       0.37500000       0.75000000 </v>
   <v>       0.00000000       0.00000000       0.00000000 </v>
   <v>       0.50000000       0.50000000       0.50000000 </v>
   <v>       0.62500000       0.25000000       0.62500000 </v>
   <v>       0.50000000       0.25000000       0.75000000 </v>
   <v>       0.50000000       0.50000000       0.50000000 </v>
   <v>       0.62500000       0.25000000       0.62500000 </v>
   <v>       0.50000000       0.00000000       0.50000000 </v>
  </generation>
  <varray name="kpointlist" >
   <v>       0.00000000       0.00000000       0.00000000 </v>
   <v>       0.02083333       0.00000000       0.02083333 </v>
   <v>       0.04166667       0.00000000       0.04166667 </v>
   <v>       0.06250000       0.00000000       0.06250000 </v>
   <v>       0.08333333       0.00000000       0.08333333 </v>
   <v>       0.10416667       0.00000000       0.10416667 </v>
   <v>       0.12500000       0.00000000       0.12500000 </v>
   <v>       0.14583333       0.00000000       0.14583333 </v>
   <v>       0.16666667       0.00000000       0.16666667 </v>
   <v>       0.18750000       0.00000000       0.18750000 </v>
   <v>       0.20833333       0.00000000       0.20833333 </v>
   <v>       0.22916667       0.00000000       0.22916667 </v>
   <v>       0.25000000       0.00000000       0.25000000 </v>
   <v>       0.27083333       0.00000000       0.27083333 </v>
   <v>       0.29166667       0.00000000       0.29166667 </v>
   <v>       0.31250000       0.00000000       0.31250000 </v>
   <v>       0.33333333       0.00000000       0.33333333 </v>
   <v>       0.35416667       0.00000000       0.35416667 </v>
   <v>       0.37500000       0.00000000       0.37500000 </v>
   <v>       0.39583333       0.00000000       0.39583333 </v>
   <v>       0.41666667       0.00000000       0.41666667 </v>
   <v>       0.43750000       0.00000000       0.43750000 </v>
   <v>       0.45833333       0.00000000       0.45833333 </v>
   <v>       0.47916667       0.00000000       0.47916667 </v>
   <v>       0.50000000       0.00000000       0.50000000 </v>
   <v>       0.50000000       0.00000000       0.50000000 </v>
   <v>       0.50000000       0.01041667       0.51041667 </v>
   <v>       0.50000000       0.02083333       0.52083333 </v>
   <v>       0.50000000       0.03125000       0.53125000 </v>
   <v>       0.50000000       0.04166667       0.54166667 </v>
   <v>       0.50000000       0.05208333       0.55208333 </v>
   <v>       0.50000000       0.06250000       0.56250000 </v>
   <v>       0.50000000       0.07291667       0.57291667 </v>
   <v>       0.50000000       0.08333333       0.58333333 </v>
   <v>       0.50000000       0.09375000       0.59375000 </v>
   <v>       0.50000000       0.10416667       0.60416667 </v>
   <v>       0.50000000       0.11458333       0.61458333 </v>
   <v>       0.50000000       0.12500000       0.62500000 </v>
   <v>       0.50000000       0.13541667       0.63541667 </v>
   <v>       0.50000000       0.14583333       0.64583333 </v>
   <v>       0.50000000       0.15625000       0.65625000 </v>
   <v>       0.50000000       0.16666667       0.66666667 </v>
   <v>       0.50000000       0.17708333       0.67708333 </v>
   <v>       0.50000000       0.18750000       0.68750000 </v>
   <v>       0.50000000       0.19791667       0.69791667 </v>
   <v>       0.50000000       0.20833333       0.70833333 </v>
   <v>       0.50000000       0.21875000       0.71875000 </v>
   <v>       0.50000000       0.22916667       0.72916667 </v>
   <v>       0.50000000       0.23958333       0.73958333 </v>
   <v>       0.50000000       0.25000000       0.75000000 </v>
   <v>       0.50000000       0.25000000       0.75000000 </v>
   <v>       0.49479167       0.25520833       0.75000000 </v>
   <v>       0.48958333       0.26041667       0.75000000 </v>
   <v>       0.48437500       0.26562500       0.75000000 </v>
   <v>       0.47916667       0.27083333       0.75000000 </v>
   <v>       0.47395833       0.27604167       0.75000000 </v>
   <v>       0.46875000       0.28125000       0.75000000 </v>
   <v>       0.46354167       0.28645833       0.75000000 </v>
   <v>       0.45833333       0.29166667       0.75000000 </v>
   <v>       0.45312500       0.29687500       0.75000000 </v>
   <v>       0.44791667       0.30208333       0.75000000 </v>
   <v>       0.44270833       0.30729167       0.75000000 </v>
   <v>       0.43750000       0.31250000       0.75000000 </v>
   <v>       0.43229167       0.31770833       0.75000000 </v>
   <v>       0.42708333       0.32291667       0.75000000 </v>
   <v>       0.42187500       0.32812500       0.75000000 </v>
   <v>       0.41666667       0.33333333       0.75000000 </v>
   <v>       0.41145833       0.33854167       0.75000000 </v>
   <v>       0.40625000       0.34375000       0.75000000 </v>
   <v>       0.40104167       0.34895833       0.75000000 </v>
   <v>       0.39583333       0.35416667       0.75000000 </v>
   <v>       0.39062500       0.35937500       0.75000000 </v>
   <v>       0.38541667       0.36458333       0.75000000 </v>
   <v>       0.38020833       0.36979167       0.75000000 </v>
   <v>       0.37500000       0.37500000       0.75000000 </v>
   <v>       0.37500000       0.37500000       0.75000000 </v>
   <v>       0.35937500       0.35937500       0.71875000 </v>
   <v>       0.34375000       0.34375000       0.68750000 </v>
   <v>       0.32812500       0.32812500       0.65625000 </v>
   <v>       0.31250000       0.31250000       0.62500000 </v>
   <v>       0.29687500       0.29687500       0.59375000 </v>
   <v>       0.28125000       0.28125000       0.56250000 </v>
   <v>       0.26562500       0.26562500       0.53125000 </v>
   <v>       0.25000000       0.25000000       0.50000000 </v>
   <v>       0.23437500       0.23437500       0.46875000 </v>
   <v>       0.21875000       0.21875000       0.43750000 </v>
   <v>       0.20312500       0.20312500       0.40625000 </v>
   <v>       0.18750000       0.18750000       0.37500000 </v>
   <v>       0.17187500       0.17187500       0.34375000 </v>
   <v>       0.15625000       0.15625000       0.31250000 </v>
   <v>       0.14062500       0.14062500       0.28125000 </v>
   <v>       0.12500000       0.12500000       0.25000000 </v>
   <v>       0.10937500       0.10937500       0.21875000 </v>
   <v>       0.09375000       0.09375000       0.18750000 </v>
   <v>       0.07812500       0.07812500       0.15625000 </v>
   <v>       0.06250000       0.06250000       0.12500000 </v>
   <v>       0.04687500       0.04687500       0.09375000 </v>
   <v>       0.03125000       0.03125000       0.06250000 </v>
   <v>       0.01562500       0.01562500       0.03125000 </v>
   <v>       0.00000000       0.00000000       0.00000000 </v>
   <v>       0.00000000       0.00000000       0.00000000 </v>
   <v>       0.02083333       0.02083333       0.02083333 </v>
   <v>       0.04166667       0.04166667       0.04166667 </v>
   <v>       0.06250000       0.06250000       0.06250000 </v>
   <v>       0.08333333       0.08333333       0.08333333 </v>
   <v>       0.10416667       0.10416667       0.10416667 </v>
   <v>       0.12500000       0.12500000       0.12500000 </v>
   <v>       0.14583333       0.14583333       0.14583333 </v>
   <v>       0.16666667       0.16666667       0.16666667 </v>
   <v>       0.18750000       0.18750000       0.18750000 </v>
   <v>       0.20833333       0.20833333       0.20833333 </v>
   <v>       0.22916667       0.22916667       0.22916667 </v>
   <v>       0.25000000       0.25000000       0.25000000 </v>
   <v>       0.27083333       0.27083333       0.27083333 </v>
   <v>       0.29166667       0.29166667       0.29166667 </v>
   <v>       0.31250000       0.31250000       0.31250000 </v>
   <v>       0.33333333       0.33333333       0.33333333 </v>
   <v>       0.35416667       0.35416667       0.35416667 </v>
   <v>       0.37500000       0.37500000       0.37500000 </v>
   <v>       0.39583333       0.39583333       0.39583333 </v>
   <v>       0.41666667       0.41666667       0.41666667 </v>
   <v>       0.43750000       0.43750000       0.43750000 </v>
   <v>       0.45833333       0.45833333       0.45833333 </v>
   <v>       0.47916667       0.47916667       0.47916667 </v>
   <v>       0.50000000       0.50000000       0.50000000 </v>
   <v>       0.50000000       0.50000000       0.50000000 </v>
   <v>       0.50520833       0.48958333       0.50520833 </v>
   <v>       0.51041667       0.47916667       0.51041667 </v>
   <v>       0.51562500       0.46875000       0.51562500 </v>
   <v>       0.52083333       0.45833333       0.52083333 </v>
   <v>       0.52604167       0.44791667       0.52604167 </v>
   <v>       0.53125000       0.43750000       0.53125000 </v>
   <v>       0.53645833       0.42708333       0.53645833 </v>
   <v>       0.54166667       0.41666667       0.54166667 </v>
   <v>       0.54687500       0.40625000       0.54687500 </v>
   <v>       0.55208333       0.39583333       0.55208333 </v>
   <v>       0.55729167       0.38541667       0.55729167 </v>
   <v>       0.56250000       0.37500000       0.56250000 </v>
   <v>       0.56770833       0.36458333       0.56770833 </v>
   <v>       0.57291667       0.35416667       0.57291667 </v>
   <v>       0.57812500       0.34375000       0.57812500 </v>
   <v>       0.58333333       0.33333333       0.58333333 </v>
   <v>       0.58854167       0.32291667       0.58854167 </v>
   <v>       0.59375000       0.31250000       0.59375000 </v>
   <v>       0.59895833       0.30208333       0.59895833 </v>
   <v>       0.60416667       0.29166667       0.60416667 </v>
   <v>       0.60937500       0.28125000       0.60937500 </v>
   <v>       0.61458333       0.27083333       0.61458333 </v>
   <v>       0.61979167       0.26041667       0.61979167 </v>
   <v>       0.62500000       0.25000000       0.62500000 </v>
   <v>       0.62500000       0.25000000       0.62500000 </v>
   <v>       0.61979167       0.25000000       0.63020833 </v>
   <v>       0.61458333       0.25000000       0.63541667 </v>
   <v>       0.60937500       0.25000000       0.64062500 </v>
   <v>       0.60416667       0.25000000       0.64583333 </v>
   <v>       0.59895833       0.25000000       0.65104167 </v>
   <v>       0.59375000       0.25000000       0.65625000 </v>
   <v>       0.58854167       0.25000000       0.66145833 </v>
   <v>       0.58333333       0.25000000       0.66666667 </v>
   <v>       0.57812500       0.25000000       0.67187500 </v>
   <v>       0.57291667       0.25000000       0.67708333 </v>
   <v>       0.56770833       0.25000000       0.68229167 </v>
   <v>       0.56250000       0.25000000       0.68750000 </v>
   <v>       0.55729167       0.25000000       0.69270833 </v>
   <v>       0.55208333       0.25000000       0.69791667 </v>
   <v>       0.54687500       0.25000000       0.70312500 </v>
   <v>       0.54166667       0.25000000       0.70833333 </v>
   <v>       0.53645833       0.25000000       0.71354167 </v>
   <v>       0.53125000       0.25000000       0.71875000 </v>
   <v>       0.52604167       0.25000000       0.72395833 </v>
   <v>       0.52083333       0.25000000       0.72916667 </v>
   <v>       0.51562500       0.25000000       0.73437500 </v>
   <v>       0.51041667       0.25000000       0.73958333 </v>
   <v>       0.50520833       0.25000000       0.74479167 </v>
   <v>       0.50000000       0.25000000       0.75000000 </v>
   <v>       0.50000000       0.25000000       0.75000000 </v>
   <v>       0.50000000       0.26041667       0.73958333 </v>
   <v>       0.50000000       0.27083333       0.72916667 </v>
   <v>       0.50000000       0.28125000       0.71875000 </v>
   <v>       0.50000000       0.29166667       0.70833333 </v>
   <v>       0.50000000       0.30208333       0.69791667 </v>
   <v>       0.50000000       0.31250000       0.68750000 </v>
   <v>       0.50000000       0.32291667       0.67708333 </v>
   <v>       0.50000000       0.33333333       0.66666667 </v>
   <v>       0.50000000       0.34375000       0.65625000 </v>
   <v>       0.50000000       0.35416667       0.64583333 </v>
   <v>       0.50000000       0.36458333       0.63541667 </v>
   <v>       0.50000000       0.37500000       0.62500000 </v>
   <v>       0.50000000       0.38541667       0.61458333 </v>
   <v>       0.50000000       0.39583333       0.60416667 </v>
   <v>       0.50000000       0.40625000       0.59375000 </v>
   <v>       0.50000000       0.41666667       0.58333333 </v>
   <v>       0.50000000       0.42708333       0.57291667 </v>
   <v>       0.50000000       0.43750000       0.56250000 </v>
   <v>       0.50000000       0.44791667       0.55208333 </v>
   <v>       0.50000000       0.45833333       0.54166667 </v>
   <v>       0.50000000       0.46875000       0.53125000 </v>
   <v>       0.50000000       0.47916667       0.52083333 </v>
   <v>       0.50000000       0.48958333       0.51041667 </v>
   <v>       0.50000000       0.50000000       0.50000000 </v>
   <v>       0.50000000       0.50000000       0.50000000 </v>
   <v>       0.49479167       0.49479167       0.51041667 </v>
   <v>       0.48958333       0.48958333       0.52083333 </v>
   <v>       0.48437500       0.48437500       0.53125000 </v>
   <v>       0.47916667       0.47916667       0.54166667 </v>
   <v>       0.47395833       0.47395833       0.55208333 </v>
   <v>       0.46875000       0.46875000       0.56250000 </v>
   <v>       0.46354167       0.46354167       0.57291667 </v>
   <v>       0.45833333       0.45833333       0.58333333 </v>
   <v>       0.45312500       0.45312500       0.59375000 </v>
   <v>       0.44791667       0.44791667       0.60416667 </v>
   <v>       0.44270833       0.44270833       0.61458333 </v>
   <v>       0.43750000       0.43750000       0.62500000 </v>
   <v>       0.43229167       0.43229167       0.63541667 </v>
   <v>       0.42708333       0.42708333       0.64583333 </v>
   <v>       0.42187500       0.42187500       0.65625000 </v>
   <v>       0.41666667       0.41666667       0.66666667 </v>
   <v>       0.41145833       0.41145833       0.67708333 </v>
   <v>       0.40625000       0.40625000       0.68750000 </v>
   <v>       0.40104167       0.40104167       0.69791667 </v>
   <v>       0.39583333       0.39583333       0.70833333 </v>
   <v>       0.39062500       0.39062500       0.71875000 </v>
   <v>       0.38541667       0.38541667       0.72916667 </v>
   <v>       0.38020833       0.38020833       0.73958333 </v>
   <v>       0.37500000       0.37500000       0.75000000 </v>
   <v>       0.62500000       0.25000000       0.62500000 </v>
   <v>       0.61979167       0.23958333       0.61979167 </v>
   <v>       0.61458333       0.22916667       0.61458333 </v>
   <v>       0.60937500       0.21875000       0.60937500 </v>
   <v>       0.60416667       0.20833333       0.60416667 </v>
   <v>       0.59895833       0.19791667       0.59895833 </v>
   <v>       0.59375000       0.18750000       0.59375000 </v>
   <v>       0.58854167       0.17708333       0.58854167 </v>
   <v>       0.58333333       0.16666667       0.58333333 </v>
   <v>       0.57812500       0.15625000       0.57812500 </v>
   <v>       0.57291667       0.14583333       0.57291667 </v>
   <v>       0.56770833       0.13541667       0.56770833 </v>
   <v>       0.56250000       0.12500000       0.56250000 </v>
   <v>       0.55729167       0.11458333       0.55729167 </v>
   <v>       0.55208333       0.10416667       0.55208333 </v>
   <v>       0.54687500       0.09375000       0.54687500 </v>
   <v>       0.54166667       0.08333333       0.54166667 </v>
   <v>       0.53645833       0.07291667       0.53645833 </v>
   <v>       0.53125000       0.06250000       0.53125000 </v>
   <v>       0.52604167       0.05208333       0.52604167 </v>
   <v>       0.52083333       0.04166667       0.52083333 </v>
   <v>       0.51562500       0.03125000       0.51562500 </v>
   <v>       0.51041667       0.02083333       0.51041667 </v>
   <v>       0.50520833       0.01041667       0.50520833 </v>
   <v>       0.50000000       0.00000000       0.50000000 </v>
  </varray>
  <varray name="weights" >
   <v>       0.00400000 </v>
   <v>       0.00400000 </v>
   <v>       0.00400000 </v>
   <v>       0.00400000 </v>
   <v>       0.00400000 </v>
   <v>       0.00400000 </v>
   <v>       0.00400000 </v>
   <v>       0.00400000 </v>
   <v>       0.00400000 </v>
   <v>       0.00400000 </v>
   <v>       0.00400000 </v>
   <v>       0.00400000 </v>
   <v>       0.00400000 </v>
   <v>       0.00400000 </v>
   <v>       0.00400000 </v>
   <v>       0.00400000 </v>
   <v>       0.00400000 </v>
   <v>       0.00400000 </v>
   <v>       0.00400000 </v>
   <v>       0.00400000 </v>
   <v>       0.00400000 </v>
   <v>       0.00400000 </v>
   <v>       0.00400000 </v>
   <v>       0.00400000 </v>
   <v>       0.00400000 </v>
   <v>       0.00400000 </v>
   <v>       0.00400000 </v>
   <v>       0.00400000 </v>
   <v>       0.00400000 </v>
   <v>       0.00400000 </v>
   <v>       0.00400000 </v>
   <v>       0.00400000 </v>
   <v>       0.00400000 </v>
   <v>       0.00400000 </v>
   <v>       0.00400000 </v>
   <v>       0.00400000 </v>
   <v>       0.00400000 </v>
   <v>       0.00400000 </v>
   <v>       0.00400000 </v>
   <v>       0.00400000 </v>
   <v>       0.00400000 </v>
   <v>       0.00400000 </v>
   <v>       0.00400000 </v>
   <v>       0.00400000 </v>
   <v>       0.00400000 </v>
   <v>       0.00400000 </v>
   <v>       0.00400000 </v>
   <v>       0.00400000 </v>
   <v>       0.00400000 </v>
   <v>       0.00400000 </v>
   <v>       0.00400000 </v>
   <v>       0.00400000 </v>
   <v>       0.00400000 </v>
   <v>       0.00400000 </v>
   <v>       0.00400000 </v>
   <v>       0.00400000 </v>
   <v>       0.00400000 </v>
   <v>       0.00400000 </v>
   <v>       0.00400000 </v>
   <v>       0.00400000 </v>
   <v>       0.00400000 </v>
   <v>       0.00400000 </v>
   <v>       0.00400000 </v>
   <v>       0.00400000 </v>
   <v>       0.00400000 </v>
   <v>       0.00400000 </v>
   <v>       0.00400000 </v>
   <v>       0.00400000 </v>
   <v>       0.00400000 </v>
   <v>       0.00400000 </v>
   <v>       0.00400000 </v>
   <v>       0.00400000 </v>
   <v>       0.00400000 </v>
   <v>       0.00400000 </v>
   <v>       0.00400000 </v>
   <v>       0.00400000 </v>
   <v>       0.00400000 </v>
   <v>       0.00400000 </v>
   <v>       0.00400000 </v>
   <v>       0.00400000 </v>
   <v>       0.00400000 </v>
   <v>       0.00400000 </v>
   <v>       0.00400000 </v>
   <v>       0.00400000 </v>
   <v>       0.00400000 </v>
   <v>       0.00400000 </v>
   <v>       0.00400000 </v>
   <v>       0.00400000 </v>
   <v>       0.00400000 </v>
   <v>       0.00400000 </v>
   <v>       0.00400000 </v>
   <v>       0.00400000 </v>
   <v>       0.00400000 </v>
   <v>       0.00400000 </v>
   <v>       0.00400000 </v>
   <v>       0.00400000 </v>
   <v>       0.00400000 </v>
   <v>       0.00400000 </v>
   <v>       0.00400000 </v>
   <v>       0.00400000 </v>
   <v>       0.00400000 </v>
   <v>       0.00400000 </v>
   <v>       0.00400000 </v>
   <v>       0.00400000 </v>
   <v>       0.00400000 </v>
   <v>       0.00400000 </v>
   <v>       0.00400000 </v>
   <v>       0.00400000 </v>
   <v>       0.00400000 </v>
   <v>       0.00400000 </v>
   <v>       0.00400000 </v>
   <v>       0.00400000 </v>
   <v>       0.00400000 </v>
   <v>       0.00400000 </v>
   <v>       0.00400000 </v>
   <v>       0.00400000 </v>
   <v>       0.00400000 </v>
   <v>       0.00400000 </v>
   <v>       0.00400000 </v>
   <v>       0.00400000 </v>
   <v>       0.00400000 </v>
   <v>       0.00400000 </v>
   <v>       0.00400000 </v>
   <v>       0.00400000 </v>
   <v>       0.00400000 </v>
   <v>       0.00400000 </v>
   <v>       0.00400000 </v>
   <v>       0.00400000 </v>
   <v>       0.00400000 </v>
   <v>       0.00400000 </v>
   <v>       0.00400000 </v>
   <v>       0.00400000 </v>
   <v>       0.00400000 </v>
   <v>       0.00400000 </v>
   <v>       0.00400000 </v>
   <v>       0.00400000 </v>
   <v>       0.00400000 </v>
   <v>       0.00400000 </v>
   <v>       0.00400000 </v>
   <v>       0.00400000 </v>
   <v>       0.00400000 </v>
   <v>       0.00400000 </v>
   <v>       0.00400000 </v>
   <v>       0.00400000 </v>
   <v>       0.00400000 </v>
   <v>       0.00400000 </v>
   <v>       0.00400000 </v>
   <v>       0.00400000 </v>
   <v>       0.00400000 </v>
   <v>       0.00400000 </v>
   <v>       0.00400000 </v>
   <v>       0.00400000 </v>
   <v>       0.00400000 </v>
   <v>       0.00400000 </v>
   <v>       0.00400000 </v>
   <v>       0.00400000 </v>
   <v>       0.00400000 </v>
   <v>       0.00400000 </v>
   <v>       0.00400000 </v>
   <v>       0.00400000 </v>
   <v>       0.00400000 </v>
   <v>       0.00400000 </v>
   <v>       0.00400000 </v>
   <v>       0.00400000 </v>
   <v>       0.00400000 </v>
   <v>       0.00400000 </v>
   <v>       0.00400000 </v>
   <v>       0.00400000 </v>
   <v>       0.00400000 </v>
   <v>       0.00400000 </v>
   <v>       0.00400000 </v>
   <v>       0.00400000 </v>
   <v>       0.00400000 </v>
   <v>       0.00400000 </v>
   <v>       0.00400000 </v>
   <v>       0.00400000 </v>
   <v>       0.00400000 </v>
   <v>       0.00400000 </v>
   <v>       0.00400000 </v>
   <v>       0.00400000 </v>
   <v>       0.00400000 </v>
   <v>       0.00400000 </v>
   <v>       0.00400000 </v>
   <v>       0.00400000 </v>
   <v>       0.00400000 </v>
   <v>       0.00400000 </v>
   <v>       0.00400000 </v>
   <v>       0.00400000 </v>
   <v>       0.00400000 </v>
   <v>       0.00400000 </v>
   <v>       0.00400000 </v>
   <v>       0.00400000 </v>
   <v>       0.00400000 </v>
   <v>       0.00400000 </v>
   <v>       0.00400000 </v>
   <v>       0.00400000 </v>
   <v>       0.00400000 </v>
   <v>       0.00400000 </v>
   <v>       0.00400000 </v>
   <v>       0.00400000 </v>
   <v>       0.00400000 </v>
   <v>       0.00400000 </v>
   <v>       0.00400000 </v>
   <v>       0.00400000 </v>
   <v>       0.00400000 </v>
   <v>       0.00400000 </v>
   <v>       0.00400000 </v>
   <v>       0.00400000 </v>
   <v>       0.00400000 </v>
   <v>       0.00400000 </v>
   <v>       0.00400000 </v>
   <v>       0.00400000 </v>
   <v>       0.00400000 </v>
   <v>       0.00400000 </v>
   <v>       0.00400000 </v>
   <v>       0.00400000 </v>
   <v>       0.00400000 </v>
   <v>       0.00400000 </v>
   <v>       0.00400000 </v>
   <v>       0.00400000 </v>
   <v>       0.00400000 </v>
   <v>       0.00400000 </v>
   <v>       0.00400000 </v>
   <v>       0.00400000 </v>
   <v>       0.00400000 </v>
   <v>       0.00400000 </v>
   <v>       0.00400000 </v>
   <v>       0.00400000 </v>
   <v>       0.00400000 </v>
   <v>       0.00400000 </v>
   <v>       0.00400000 </v>
   <v>       0.00400000 </v>
   <v>       0.00400000 </v>
   <v>       0.00400000 </v>
   <v>       0.00400000 </v>
   <v>       0.00400000 </v>
   <v>       0.00400000 </v>
   <v>       0.00400000 </v>
   <v>       0.00400000 </v>
   <v>       0.00400000 </v>
   <v>       0.00400000 </v>
   <v>       0.00400000 </v>
   <v>       0.00400000 </v>
   <v>       0.00400000 </v>
   <v>       0.00400000 </v>
   <v>       0.00400000 </v>
   <v>       0.00400000 </v>
   <v>       0.00400000 </v>
   <v>       0.00400000 </v>
   <v>       0.00400000 </v>
  </varray>
  <kpoints_labels>
   <i name="G" type="int">       1 </i>
   <i name="X" type="int">       2 </i>
   <i name="X" type="int">       3 </i>
   <i name="W" type="int">       4 </i>
   <i name="W" type="int">       5 </i>
   <i name="K" type="int">       6 </i>
   <i name="K" type="int">       7 </i>
   <i name="G" type="int">       8 </i>
   <i name="G" type="int">       9 </i>
   <i name="L" type="int">      10 </i>
   <i name="L" type="int">      11 </i>
   <i name="U" type="int">      12 </i>
   <i name="U" type="int">      13 </i>
   <i name="W" type="int">      14 </i>
   <i name="W" type="int">      15 </i>
   <i name="L" type="int">      16 </i>
   <i name="L" type="int">      17 </i>
   <i name="K" type="int">      18 </i>
   <i name="U" type="int">      19 </i>
   <i name="X" type="int">      20 </i>
  </kpoints_labels>
 </kpoints>
 <parameters>
  <separator name="general" >
   <i type="string" name="SYSTEM">Cu FCC</i>
   <i type="logical" name="LCOMPAT"> F  </i>
  </separator>
  <separator name="electronic" >
   <i type="string" name="PREC">accura</i>
   <i name="ENMAX">    520.00000000</i>
   <i name="ENAUG">    586.98000000</i>
   <i name="EDIFF">      0.00000000</i>
   <i type="int" name="IALGO">    38</i>
   <i type="int" name="IWAVPR">    10</i>
   <i type="int" name="NBANDS">    12</i>
   <i type="int" name="NBANDSLOW">    -1</i>
   <i type="int" name="NBANDSHIGH">    -1</i>
   <i name="NELECT">     11.00000000</i>
   <i type="int" name="TURBO">     0</i>
   <i type="int" name="IRESTART">     0</i>
   <i type="int" name="NREBOOT">     0</i>
   <i type="int" name="NMIN">     0</i>
   <i name="EREF">      0.00000000</i>
   <separator name="electronic smearing" >
    <i type="int" name="ISMEAR">     0</i>
    <i name="SIGMA">      0.03000000</i>
    <i name="KSPACING">      0.50000000</i>
    <i type="logical" name="KGAMMA"> T  </i>
    <i type="logical" name="KBLOWUP"> T  </i>
   </separator>
   <separator name="electronic projectors" >
    <i type="logical" name="LREAL"> F  </i>
    <v name="ROPT">      0.00000000</v>
    <i type="int" name="LMAXPAW">  -100</i>
    <i type="int" name="LMAXMIX">     2</i>
    <i type="logical" name="NLSPLINE"> F  </i>
   </separator>
   <separator name="electronic startup" >
    <i type="int" name="ISTART">     0</i>
    <i type="int" name="ICHARG">    11</i>
    <i type="int" name="INIWAV">     1</i>
   </separator>
   <separator name="electronic spin" >
    <i type="int" name="ISPIN">     1</i>
    <i type="logical" name="LNONCOLLINEAR"> F  </i>
    <v name="MAGMOM">      1.00000000</v>
    <i name="NUPDOWN">     -1.00000000</i>
    <i type="logical" name="LSORBIT"> F  </i>
    <v name="SAXIS">      0.00000000      0.00000000      1.00000000</v>
    <i type="logical" name="LSPIRAL"> F  </i>
    <v name="QSPIRAL">      0.00000000      0.00000000      0.00000000</v>
    <i type="logical" name="LZEROZ"> F  </i>
   </separator>
   <separator name="electronic exchange-correlation" >
    <i type="logical" name="LASPH"> F  </i>
    <i type="logical" name="LMETAGGA"> F  </i>
   </separator>
   <separator name="electronic convergence" >
    <i type="int" name="NELM">    60</i>
    <i type="int" name="NELMDL">     0</i>
    <i type="int" name="NELMIN">     2</i>
    <i name="ENINI">    520.00000000</i>
    <separator name="electronic convergence detail" >
     <i type="logical" name="LDIAG"> T  </i>
     <i type="logical" name="LSUBROT"> F  </i>
     <i name="WEIMIN">      0.00000000</i>
     <i name="EBREAK">      0.00000000</i>
     <i name="DEPER">      0.30000000</i>
     <i type="int" name="NRMM">     4</i>
     <i name="TIME">      0.40000000</i>
    </separator>
   </separator>
   <separator name="electronic mixer" >
    <i name="AMIX">      0.40000000</i>
    <i name="BMIX">      1.00000000</i>
    <i name="AMIN">      0.10000000</i>
    <i name="AMIX_MAG">      1.60000000</i>
    <i name="BMIX_MAG">      1.00000000</i>
    <separator name="electronic mixer details" >
     <i type="int" name="IMIX">     4</i>
     <i type="logical" name="MIXFIRST"> F  </i>
     <i type="int" name="MAXMIX">   -45</i>
     <i name="WC">    100.00000000</i>
     <i type="int" name="INIMIX">     1</i>
     <i type="int" name="MIXPRE">     1</i>
     <i type="int" name="MREMOVE">     5</i>
    </separator>
   </separator>
   <separator name="electronic dipolcorrection" >
    <i type="logical" name="LDIPOL"> F  </i>
    <i type="logical" name="LMONO"> F  </i>
    <i type="int" name="IDIPOL">     0</i>
    <i name="EPSILON">      1.00000000</i>
    <v name="DIPOL">   -100.00000000   -100.00000000   -100.00000000</v>
    <i name="EFIELD">      0.00000000</i>
   </separator>
  </separator>
  <separator name="grids" >
   <i type="int" name="NGX">    20</i>
   <i type="int" name="NGY">    20</i>
   <i type="int" name="NGZ">    20</i>
   <i type="int" name="NGXF">    40</i>
   <i type="int" name="NGYF">    40</i>
   <i type="int" name="NGZF">    40</i>
   <i type="logical" name="ADDGRID"> F  </i>
  </separator>
  <separator name="ionic" >
   <i type="int" name="NSW">     0</i>
   <i type="int" name="IBRION">    -1</i>
   <i type="int" name="MDALGO">     0</i>
   <i type="int" name="ISIF">     0</i>
   <i name="PSTRESS">      0.00000000</i>
   <i name="EDIFFG">     -0.00001000</i>
   <i type="int" name="NFREE">     0</i>
   <i name="POTIM">      0.50000000</i>
   <i name="SMASS">     -3.00000000</i>
   <i name="SCALEE">      1.00000000</i>
  </separator>
  <separator name="ionic md" >
   <i name="TEBEG">      0.00010000</i>
   <i name="TEEND">      0.00010000</i>
   <i type="int" name="NBLOCK">     1</i>
   <i type="int" name="KBLOCK">     1</i>
   <i type="int" name="NPACO">   256</i>
   <i name="APACO">     10.00000000</i>
  </separator>
  <separator name="symmetry" >
   <i type="int" name="ISYM">     2</i>
   <i name="SYMPREC">      0.00001000</i>
  </separator>
  <separator name="dos" >
   <i type="int" name="LORBIT">    11</i>
   <v name="RWIGS">     -1.00000000</v>
   <i type="int" name="NEDOS">   301</i>
   <i name="EMIN">     10.00000000</i>
   <i name="EMAX">    -10.00000000</i>
   <i name="EFERMI">      0.00000000</i>
  </separator>
  <separator name="writing" >
   <i type="int" name="NWRITE">     2</i>
   <i type="logical" name="LWAVE"> F  </i>
   <i type="logical" name="LDOWNSAMPLE"> F  </i>
   <i type="logical" name="LCHARG"> T  </i>
   <i type="logical" name="LPARD"> F  </i>
   <i type="logical" name="LVTOT"> F  </i>
   <i type="logical" name="LVHAR"> F  </i>
   <i type="logical" name="LELF"> F  </i>
   <i type="logical" name="LOPTICS"> F  </i>
   <v name="STM">      0.00000000      0.00000000      0.00000000      0.00000000      0.00000000      0.00000000      0.00000000</v>
  </separator>
  <separator name="performance" >
   <i type="int" name="NPAR">     4</i>
   <i type="int" name="NSIM">     4</i>
   <i type="int" name="NBLK">    -1</i>
   <i type="logical" name="LPLANE"> T  </i>
   <i type="logical" name="LSCALAPACK"> T  </i>
   <i type="logical" name="LSCAAWARE"> F  </i>
   <i type="logical" name="LSCALU"> F  </i>
   <i type="logical" name="LASYNC"> F  </i>
   <i type="logical" name="LORBITALREAL"> F  </i>
  </separator>
  <separator name="miscellaneous" >
   <i type="int" name="IDIOT">     3</i>
   <i type="int" name="PHON_NSTRUCT">    -1</i>
   <i type="logical" name="LMUSIC"> F  </i>
   <v name="POMASS">     63.54600000</v>
   <v name="DARWINR">      0.00000000</v>
   <v name="DARWINV">      1.00000000</v>
   <i type="logical" name="LCORR"> T  </i>
  </separator>
  <i type="logical" name="GGA_COMPAT"> T  </i>
  <i type="logical" name="LBERRY"> F  </i>
  <i type="int" name="ICORELEVEL">     0</i>
  <i type="logical" name="LDAU"> F  </i>
  <i type="int" name="I_CONSTRAINED_M">     0</i>
  <separator name="electronic exchange-correlation" >
   <i type="string" name="GGA">PE</i>
   <i type="int" name="VOSKOWN">     0</i>
   <i type="logical" name="LHFCALC"> F  </i>
   <i type="string" name="PRECFOCK"></i>
   <i type="logical" name="LSYMGRAD"> F  </i>
   <i type="logical" name="LHFONE"> F  </i>
   <i type="logical" name="LRHFCALC"> F  </i>
   <i type="logical" name="LTHOMAS"> F  </i>
   <i type="logical" name="LMODELHF"> F  </i>
   <i type="logical" name="LFOCKACE"> F  </i>
   <i name="ENCUT4O">     -1.00000000</i>
   <i type="int" name="EXXOEP">     0</i>
   <i type="int" name="FOURORBIT">     0</i>
   <i name="AEXX">      0.00000000</i>
   <i name="HFALPHA">      0.00000000</i>
   <i name="MCALPHA">      0.00000000</i>
   <i name="ALDAX">      1.00000000</i>
   <i name="AGGAX">      1.00000000</i>
   <i name="ALDAC">      1.00000000</i>
   <i name="AGGAC">      1.00000000</i>
   <i type="int" name="NKREDX">     1</i>
   <i type="int" name="NKREDY">     1</i>
   <i type="int" name="NKREDZ">     1</i>
   <i type="logical" name="SHIFTRED"> F  </i>
   <i type="logical" name="ODDONLY"> F  </i>
   <i type="logical" name="EVENONLY"> F  </i>
   <i type="int" name="LMAXFOCK">     0</i>
   <i type="int" name="NMAXFOCKAE">     0</i>
   <i type="logical" name="LFOCKAEDFT"> F  </i>
   <i name="HFSCREEN">      0.00000000</i>
   <i name="HFSCREENC">      0.00000000</i>
   <i type="int" name="NBANDSGWLOW">     0</i>
  </separator>
  <separator name="vdW DFT" >
   <i type="logical" name="LUSE_VDW"> F  </i>
   <i type="int" name="IVDW_NL">     1</i>
   <i type="logical" name="LSPIN_VDW"> F  </i>
   <i name="Zab_VDW">     -0.84910000</i>
   <i name="PARAM1">      0.12340000</i>
   <i name="PARAM2">      1.00000000</i>
   <i name="PARAM3">      0.00000000</i>
  </separator>
  <separator name="model GW" >
   <i type="int" name="MODEL_GW">     0</i>
   <i name="MODEL_EPS0">      7.21534199</i>
   <i name="MODEL_ALPHA">      1.00000000</i>
  </separator>
  <separator name="linear response parameters" >
   <i type="logical" name="LEPSILON"> F  </i>
   <i type="logical" name="LRPA"> F  </i>
   <i type="logical" name="LNABLA"> F  </i>
   <i type="logical" name="LVEL"> F  </i>
   <i name="CSHIFT">      0.10000000</i>
   <i name="OMEGAMAX">     -1.00000000</i>
   <i name="DEG_THRESHOLD">      0.00200000</i>
   <i name="RTIME">     -0.10000000</i>
   <i name="WPLASMAI">      0.00000000</i>
   <v name="DFIELD">      0.00000000      0.00000000      0.00000000</v>
   <v name="WPLASMA">      0.00000000      0.00000000      0.00000000      0.00000000      0.00000000      0.00000000      0.00000000      0.00000000      0.00000000</v>
  </separator>
  <separator name="orbital magnetization" >
   <i type="logical" name="NUCIND"> F  </i>
   <v name="MAGPOS">      0.00000000      0.00000000      0.00000000</v>
   <i type="logical" name="LNICSALL"> T  </i>
   <i type="logical" name="ORBITALMAG"> F  </i>
   <i type="logical" name="LMAGBLOCH"> F  </i>
   <i type="logical" name="LCHIMAG"> F  </i>
   <i type="logical" name="LGAUGE"> T  </i>
   <i type="int" name="MAGATOM">     0</i>
   <v name="MAGDIPOL">      0.00000000      0.00000000      0.00000000</v>
   <v name="AVECCONST">      0.00000000      0.00000000      0.00000000</v>
  </separator>
  <separator name="response functions" >
   <i type="logical" name="LALL_IN_ONE"> F  </i>
   <i type="int" name="IALL_IN_ONE">    -1</i>
   <i type="int" name="NBANDS_WAVE">    -1</i>
   <i type="logical" name="LFINITE_TEMPERATURE"> F  </i>
   <i type="logical" name="LADDER"> F  </i>
   <i type="logical" name="LRPAFORCE"> F  </i>
   <i type="logical" name="LFXC"> F  </i>
   <i type="logical" name="LHARTREE"> T  </i>
   <i type="int" name="IBSE">     0</i>
   <v type="int" name="KPOINT">    -1     0     0     0</v>
   <i type="logical" name="LTCTC"> F  </i>
   <i type="logical" name="LTCTE"> F  </i>
   <i type="logical" name="LTETE"> F  </i>
   <i type="logical" name="LTRIPLET"> F  </i>
   <i type="logical" name="LFXCEPS"> F  </i>
   <i type="logical" name="LFXHEG"> F  </i>
   <i type="int" name="NATURALO">     2</i>
   <i type="logical" name="LHOLEGF"> F  </i>
   <i type="logical" name="L2ORDER"> F  </i>
   <i type="logical" name="LDMP1"> F  </i>
   <i type="logical" name="LMP2LT"> F  </i>
   <i type="logical" name="LSMP2LT"> F  </i>
   <i type="logical" name="LGWLF"> F  </i>
   <i name="ENCUTGW">     -1.60000002</i>
   <i name="ENCUTGWSOFT">     -1.60000002</i>
   <i name="ENCUTLF">     -1.00000000</i>
   <i type="logical" name="LESF_SPLINES"> F  </i>
   <i type="int" name="LMAXMP2">    -1</i>
   <i name="SCISSOR">      0.00000000</i>
   <i type="int" name="NOMEGA">     0</i>
   <i type="int" name="NOMEGAR">     0</i>
   <i type="int" name="NBANDSGW">    -1</i>
   <i type="int" name="NBANDSO">    -1</i>
   <i type="int" name="NBANDSV">    -1</i>
   <i type="int" name="NELMGW">     1</i>
   <i type="int" name="NELMHF">     1</i>
   <i type="int" name="DIM">     3</i>
   <i type="int" name="IESPILON">     4</i>
   <i type="int" name="ANTIRES">     0</i>
   <i name="OMEGAMAX">    -30.00000000</i>
   <i name="OMEGAMIN">    -30.00000000</i>
   <i name="OMEGATL">   -200.00000000</i>
   <i type="int" name="OMEGAGRID">     0</i>
   <i name="CSHIFT">     -0.10000000</i>
   <i type="logical" name="LSELFENERGY"> F  </i>
   <i type="logical" name="LSPECTRAL"> F  </i>
   <i type="logical" name="LSPECTRALGW"> F  </i>
   <i type="logical" name="LSINGLES"> F  </i>
   <i type="logical" name="LFERMIGW"> F  </i>
   <i type="logical" name="ODDONLYGW"> F  </i>
   <i type="logical" name="EVENONLYGW"> F  </i>
   <i type="int" name="NKREDLFX">     1</i>
   <i type="int" name="NKREDLFY">     1</i>
   <i type="int" name="NKREDLFZ">     1</i>
   <i type="int" name="MAXMEM">  2800</i>
   <i type="int" name="TELESCOPE">     0</i>
   <i type="int" name="NTAUPAR">    -1</i>
   <i type="int" name="NOMEGAPAR">    -1</i>
   <i name="DAMP_NEWTON">      0.80000001</i>
   <i name="LAMBDA">      1.00000000</i>
  </separator>
  <separator name="External order field" >
   <i name="OFIELD_KAPPA">      0.00000000</i>
   <v name="OFIELD_K">      0.00000000      0.00000000      0.00000000</v>
   <i name="OFIELD_Q6_NEAR">      0.00000000</i>
   <i name="OFIELD_Q6_FAR">      0.00000000</i>
   <i name="OFIELD_A">      0.00000000</i>
  </separator>
  <separator name="optional k-points parameters" >
   <i type="int" name="KPOINTS_OPT_MODE">     1</i>
   <i type="logical" name="LKPOINTS_OPT"> F  </i>
  </separator>
  <separator name="solvation model" >
   <i type="logical" name="LSOL"> F  </i>
  </separator>
 </parameters>
 <atominfo>
  <atoms>       1 </atoms>
  <types>       1 </types>
  <array name="atoms" >
   <dimension dim="1">ion</dimension>
   <field type="string">element</field>
   <field type="int">atomtype</field>
   <set>
    <rc><c>Cu</c><c>   1</c></rc>
   </set>
  </array>
  <array name="atomtypes" >
   <dimension dim="1">type</dimension>
   <field type="int">atomspertype</field>
   <field type="string">element</field>
   <field>mass</field>
   <field>valence</field>
   <field type="string">pseudopotential</field>
   <set>
    <rc><c>   1</c><c>Cu</c><c>     63.54600000</c><c>     11.00000000</c><c>  PAW_PBE Cu 22Jun2005                  </c></rc>
   </set>
  </array>
 </atominfo>
 <structure name="initialpos" >
  <crystal>
   <varray name="basis" >
    <v>       0.00000000       1.81841034       1.81841034 </v>
    <v>       1.81841034       0.00000000       1.81841034 </v>
    <v>       1.81841034       1.81841034       0.00000000 </v>
   </varray>
   <i name="volume">     12.02556998 </i>
   <varray name="rec_basis" >
    <v>      -0.27496544       0.27496544       0.27496544 </v>
    <v>       0.27496544      -0.27496544       0.27496544 </v>
    <v>       0.27496544       0.27496544      -0.27496544 </v>
   </varray>
  </crystal>
  <varray name="positions" >
   <v>       0.00000000       0.00000000       0.00000000 </v>
  </varray>
 </structure>
 <calculation>
  <scstep>
   <time name="dav">    1.06    1.08</time>
   <time name="total">    1.08    1.10</time>
   <energy>
    <i name="alphaZ">     60.81441780 </i>
    <i name="ewald">  -1098.28698219 </i>
    <i name="hartreedc">   -342.31779597 </i>
    <i name="XCdc">     44.63938130 </i>
    <i name="pawpsdc">   1310.79312178 </i>
    <i name="pawaedc">  -1418.58454217 </i>
    <i name="eentropy">     -0.00041000 </i>
    <i name="bandstr">     98.59436128 </i>
    <i name="atom">   1390.97705399 </i>
    <i name="e_fr_energy">     46.62860581 </i>
    <i name="e_wo_entrp">     46.62901582 </i>
    <i name="e_0_energy">     46.62881081 </i>
   </energy>
  </scstep>
  <scstep>
   <time name="dav">    1.01    1.03</time>
   <time name="total">    1.02    1.03</time>
   <energy>
    <i name="e_fr_energy">     -0.91018947 </i>
    <i name="e_wo_entrp">     -0.91018240 </i>
    <i name="e_0_energy">     -0.91018593 </i>
   </energy>
  </scstep>
  <scstep>
   <time name="dav">    1.12    1.14</time>
   <time name="total">    1.13    1.14</time>
   <energy>
    <i name="e_fr_energy">     -2.33736959 </i>
    <i name="e_wo_entrp">     -2.33729531 </i>
    <i name="e_0_energy">     -2.33733245 </i>
   </energy>
  </scstep>
  <scstep>
   <time name="dav">    1.11    1.12</time>
   <time name="total">    1.11    1.13</time>
   <energy>
    <i name="e_fr_energy">     -2.34697282 </i>
    <i name="e_wo_entrp">     -2.34689779 </i>
    <i name="e_0_energy">     -2.34693530 </i>
   </energy>
  </scstep>
  <scstep>
   <time name="dav">    1.13    1.15</time>
   <time name="total">    1.13    1.15</time>
   <energy>
    <i name="e_fr_energy">     -2.34707197 </i>
    <i name="e_wo_entrp">     -2.34699694 </i>
    <i name="e_0_energy">     -2.34703445 </i>
   </energy>
  </scstep>
  <scstep>
   <time name="dav">    1.11    1.12</time>
   <time name="total">    1.11    1.13</time>
   <energy>
    <i name="e_fr_energy">     -2.34707368 </i>
    <i name="e_wo_entrp">     -2.34699865 </i>
    <i name="e_0_energy">     -2.34703616 </i>
   </energy>
  </scstep>
  <scstep>
   <time name="dav">    1.15    1.17</time>
   <time name="total">    1.16    1.17</time>
   <energy>
    <i name="e_fr_energy">     -2.34707371 </i>
    <i name="e_wo_entrp">     -2.34699868 </i>
    <i name="e_0_energy">     -2.34703620 </i>
   </energy>
  </scstep>
  <scstep>
   <time name="dav">    1.12    1.14</time>
   <time name="total">    1.12    1.14</time>
   <energy>
    <i name="e_fr_energy">     -2.34707371 </i>
    <i name="e_wo_entrp">     -2.34699868 </i>
    <i name="e_0_energy">     -2.34703620 </i>
   </energy>
  </scstep>
  <scstep>
   <time name="dav">    1.06    1.08</time>
   <time name="total">    1.06    1.08</time>
   <energy>
    <i name="e_fr_energy">     -2.34707371 </i>
    <i name="e_wo_entrp">     -2.34699868 </i>
    <i name="e_0_energy">     -2.34703620 </i>
   </energy>
  </scstep>
  <scstep>
   <time name="dav">    0.89    0.90</time>
   <time name="total">    0.89    0.91</time>
   <energy>
    <i name="e_fr_energy">     -2.34707371 </i>
    <i name="e_wo_entrp">     -2.34699868 </i>
    <i name="e_0_energy">     -2.34703620 </i>
   </energy>
  </scstep>
  <scstep>
   <time name="dav">    0.84    0.85</time>
   <time name="total">    0.84    0.85</time>
   <energy>
    <i name="alphaZ">     60.81441780 </i>
    <i name="ewald">  -1098.28698219 </i>
    <i name="hartreedc">   -342.31779597 </i>
    <i name="XCdc">     44.63938130 </i>
    <i name="pawpsdc">   1310.79312178 </i>
    <i name="pawaedc">  -1418.58454217 </i>
    <i name="eentropy">     -0.00007503 </i>
    <i name="bandstr">     49.61834678 </i>
    <i name="atom">   1390.97705399 </i>
    <i name="e_fr_energy">     -2.34707371 </i>
    <i name="e_wo_entrp">     -2.34699868 </i>
    <i name="e_0_energy">     -2.34703620 </i>
   </energy>
  </scstep>
  <structure>
   <crystal>
    <varray name="basis" >
     <v>       0.00000000       1.81841034       1.81841034 </v>
     <v>       1.81841034       0.00000000       1.81841034 </v>
     <v>       1.81841034       1.81841034       0.00000000 </v>
    </varray>
    <i name="volume">     12.02556998 </i>
    <varray name="rec_basis" >
     <v>      -0.27496544       0.27496544       0.27496544 </v>
     <v>       0.27496544      -0.27496544       0.27496544 </v>
     <v>       0.27496544       0.27496544      -0.27496544 </v>
    </varray>
   </crystal>
   <varray name="positions" >
    <v>       0.00000000       0.00000000       0.00000000 </v>
   </varray>
  </structure>
  <varray name="forces" >
   <v>       0.00000000       0.00000000       0.00000000 </v>
  </varray>
  <energy>
   <i name="e_fr_energy">     -2.34707371 </i>
   <i name="e_wo_entrp">     -2.34699868 </i>
   <i name="e_0_energy">     -2.34703620 </i>
  </energy>
  <time name="totalsc">   11.89   12.06</time>
  <eigenvalues>
   <array>
    <dimension dim="1">band</dimension>
    <dimension dim="2">kpoint</dimension>
    <dimension dim="3">spin</dimension>
    <field>eigene</field>
    <field>occ</field>
    <set>
     <set comment="spin 1">
      <set comment="kpoint 1">
       <r>   -1.8506    1.0000 </r>
       <r>    4.4004    1.0000 </r>
       <r>    4.4004    1.0000 </r>
       <r>    4.4004    1.0000 </r>
       <r>    5.1884    1.0000 </r>
       <r>    5.1884    1.0000 </r>
       <r>   29.8133    0.0000 </r>
       <r>   32.3179    0.0000 </r>
       <r>   32.3180    0.0000 </r>
       <r>   32.3180    0.0000 </r>
       <r>   34.7983    0.0000 </r>
       <r>   34.7983    0.0000 </r>
      </set>
      <set comment="kpoint 2">
       <r>   -1.8297    1.0000 </r>
       <r>    4.3943    1.0000 </r>
       <r>    4.4053    1.0000 </r>
       <r>    4.4053    1.0000 </r>
       <r>    5.1828    1.0000 </r>
       <r>    5.1906    1.0000 </r>
       <r>   29.7320    0.0000 </r>
       <r>   32.0408    0.0000 </r>
       <r>   32.0408    0.0000 </r>
       <r>   32.2248    0.0000 </r>
       <r>   34.9238    0.0000 </r>
       <r>   35.0863    0.0000 </r>
      </set>
      <set comment="kpoint 3">
       <r>   -1.7672    1.0000 </r>
       <r>    4.3760    1.0000 </r>
       <r>    4.4199    1.0000 </r>
       <r>    4.4199    1.0000 </r>
       <r>    5.1663    1.0000 </r>
       <r>    5.1973    1.0000 </r>
       <r>   29.5101    0.0000 </r>
       <r>   31.4229    0.0000 </r>
       <r>   31.4230    0.0000 </r>
       <r>   31.9657    0.0000 </r>
       <r>   35.2786    0.0000 </r>
       <r>   35.7364    0.0000 </r>
      </set>
      <set comment="kpoint 4">
       <r>   -1.6634    1.0000 </r>
       <r>    4.3460    1.0000 </r>
       <r>    4.4441    1.0000 </r>
       <r>    4.4441    1.0000 </r>
       <r>    5.1393    1.0000 </r>
       <r>    5.2083    1.0000 </r>
       <r>   29.1943    0.0000 </r>
       <r>   30.6893    0.0000 </r>
       <r>   30.6893    0.0000 </r>
       <r>   31.5865    0.0000 </r>
       <r>   35.8151    0.0000 </r>
       <r>   36.5224    0.0000 </r>
      </set>
      <set comment="kpoint 5">
       <r>   -1.5188    1.0000 </r>
       <r>    4.3048    1.0000 </r>
       <r>    4.4779    1.0000 </r>
       <r>    4.4779    1.0000 </r>
       <r>    5.1027    1.0000 </r>
       <r>    5.2234    1.0000 </r>
       <r>   28.8288    0.0000 </r>
       <r>   29.9219    0.0000 </r>
       <r>   29.9219    0.0000 </r>
       <r>   31.1330    0.0000 </r>
       <r>   36.4887    0.0000 </r>
       <r>   37.3605    0.0000 </r>
      </set>
      <set comment="kpoint 6">
       <r>   -1.3343    1.0000 </r>
       <r>    4.2532    1.0000 </r>
       <r>    4.5209    1.0000 </r>
       <r>    4.5209    1.0000 </r>
       <r>    5.0576    1.0000 </r>
       <r>    5.2425    1.0000 </r>
       <r>   28.4445    0.0000 </r>
       <r>   29.1501    0.0000 </r>
       <r>   29.1501    0.0000 </r>
       <r>   30.6377    0.0000 </r>
       <r>   36.3981    0.0000 </r>
       <r>   37.2675    0.0000 </r>
      </set>
      <set comment="kpoint 7">
       <r>   -1.1111    1.0000 </r>
       <r>    4.1923    1.0000 </r>
       <r>    4.5728    1.0000 </r>
       <r>    4.5729    1.0000 </r>
       <r>    5.0056    1.0000 </r>
       <r>    5.2651    1.0000 </r>
       <r>   28.0606    0.0000 </r>
       <r>   28.3869    0.0000 </r>
       <r>   28.3869    0.0000 </r>
       <r>   30.1177    0.0000 </r>
       <r>   35.0760    0.0000 </r>
       <r>   38.1312    0.0000 </r>
      </set>
      <set comment="kpoint 8">
       <r>   -0.8508    1.0000 </r>
       <r>    4.1232    1.0000 </r>
       <r>    4.6335    1.0000 </r>
       <r>    4.6335    1.0000 </r>
       <r>    4.9491    1.0000 </r>
       <r>    5.2910    1.0000 </r>
       <r>   27.6393    0.0000 </r>
       <r>   27.6393    0.0000 </r>
       <r>   27.6883    0.0000 </r>
       <r>   29.5751    0.0000 </r>
       <r>   33.7634    0.0000 </r>
       <r>   39.0671    0.0000 </r>
      </set>
      <set comment="kpoint 9">
       <r>   -0.5559    1.0000 </r>
       <r>    4.0471    1.0000 </r>
       <r>    4.7022    1.0000 </r>
       <r>    4.7022    1.0000 </r>
       <r>    4.8909    1.0000 </r>
       <r>    5.3197    1.0000 </r>
       <r>   26.9118    0.0000 </r>
       <r>   26.9118    0.0000 </r>
       <r>   27.3342    0.0000 </r>
       <r>   28.9942    0.0000 </r>
       <r>   32.5116    0.0000 </r>
       <r>   40.0672    0.0000 </r>
      </set>
      <set comment="kpoint 10">
       <r>   -0.2294    1.0000 </r>
       <r>    3.9657    1.0000 </r>
       <r>    4.7783    1.0000 </r>
       <r>    4.7783    1.0000 </r>
       <r>    4.8351    1.0000 </r>
       <r>    5.3507    1.0000 </r>
       <r>   26.2078    0.0000 </r>
       <r>   26.2078    0.0000 </r>
       <r>   27.0020    0.0000 </r>
       <r>   28.3371    0.0000 </r>
       <r>   31.3765    0.0000 </r>
       <r>   41.1260    0.0000 </r>
      </set>
      <set comment="kpoint 11">
       <r>    0.1240    1.0000 </r>
       <r>    3.8803    1.0000 </r>
       <r>    4.7868    1.0000 </r>
       <r>    4.8613    1.0000 </r>
       <r>    4.8613    1.0000 </r>
       <r>    5.3836    1.0000 </r>
       <r>   25.5303    0.0000 </r>
       <r>   25.5303    0.0000 </r>
       <r>   26.6937    0.0000 </r>
       <r>   27.5495    0.0000 </r>
       <r>   30.4224    0.0000 </r>
       <r>   42.2444    0.0000 </r>
      </set>
      <set comment="kpoint 12">
       <r>    0.4977    1.0000 </r>
       <r>    3.7924    1.0000 </r>
       <r>    4.7536    1.0000 </r>
       <r>    4.9500    1.0000 </r>
       <r>    4.9500    1.0000 </r>
       <r>    5.4178    1.0000 </r>
       <r>   24.8819    0.0000 </r>
       <r>   24.8819    0.0000 </r>
       <r>   26.4100    0.0000 </r>
       <r>   26.6018    0.0000 </r>
       <r>   29.6850    0.0000 </r>
       <r>   43.2707    0.0000 </r>
      </set>
      <set comment="kpoint 13">
       <r>    0.8820    1.0000 </r>
       <r>    3.7037    1.0000 </r>
       <r>    4.7459    1.0000 </r>
       <r>    5.0434    1.0000 </r>
       <r>    5.0434    1.0000 </r>
       <r>    5.4526    1.0000 </r>
       <r>   24.2651    0.0000 </r>
       <r>   24.2651    0.0000 </r>
       <r>   25.5244    0.0000 </r>
       <r>   26.1510    0.0000 </r>
       <r>   29.1376    0.0000 </r>
       <r>   44.0660    0.0000 </r>
      </set>
      <set comment="kpoint 14">
       <r>    1.2627    1.0000 </r>
       <r>    3.6156    1.0000 </r>
       <r>    4.7782    1.0000 </r>
       <r>    5.1402    1.0000 </r>
       <r>    5.1402    1.0000 </r>
       <r>    5.4875    1.0000 </r>
       <r>   23.6824    0.0000 </r>
       <r>   23.6824    0.0000 </r>
       <r>   24.3742    0.0000 </r>
       <r>   25.9166    0.0000 </r>
       <r>   28.7254    0.0000 </r>
       <r>   44.8787    0.0000 </r>
      </set>
      <set comment="kpoint 15">
       <r>    1.6206    1.0000 </r>
       <r>    3.5296    1.0000 </r>
       <r>    4.8698    1.0000 </r>
       <r>    5.2388    1.0000 </r>
       <r>    5.2388    1.0000 </r>
       <r>    5.5220    1.0000 </r>
       <r>   23.1365    0.0000 </r>
       <r>   23.1365    0.0000 </r>
       <r>   23.1963    0.0000 </r>
       <r>   25.7060    0.0000 </r>
       <r>   28.4050    0.0000 </r>
       <r>   45.7001    0.0000 </r>
      </set>
      <set comment="kpoint 16">
       <r>    1.9329    1.0000 </r>
       <r>    3.4472    1.0000 </r>
       <r>    5.0433    1.0000 </r>
       <r>    5.3376    1.0000 </r>
       <r>    5.3376    1.0000 </r>
       <r>    5.5554    1.0000 </r>
       <r>   22.0181    0.0000 </r>
       <r>   22.6301    0.0000 </r>
       <r>   22.6301    0.0000 </r>
       <r>   25.5187    0.0000 </r>
       <r>   28.1500    0.0000 </r>
       <r>   46.5354    0.0000 </r>
      </set>
      <set comment="kpoint 17">
       <r>    2.1803    1.0000 </r>
       <r>    3.3696    1.0000 </r>
       <r>    5.3167    1.0000 </r>
       <r>    5.4347    1.0000 </r>
       <r>    5.4347    1.0000 </r>
       <r>    5.5871    1.0000 </r>
       <r>   20.8569    0.0000 </r>
       <r>   22.1661    0.0000 </r>
       <r>   22.1661    0.0000 </r>
       <r>   25.3538    0.0000 </r>
       <r>   27.9447    0.0000 </r>
       <r>   47.3914    0.0000 </r>
      </set>
      <set comment="kpoint 18">
       <r>    2.3559    1.0000 </r>
       <r>    3.2982    1.0000 </r>
       <r>    5.5279    1.0000 </r>
       <r>    5.5279    1.0000 </r>
       <r>    5.6165    1.0000 </r>
       <r>    5.6945    1.0000 </r>
       <r>   19.7250    0.0000 </r>
       <r>   21.7472    0.0000 </r>
       <r>   21.7472    0.0000 </r>
       <r>   25.2105    0.0000 </r>
       <r>   27.7790    0.0000 </r>
       <r>   48.0309    0.0000 </r>
      </set>
      <set comment="kpoint 19">
       <r>    2.4679    1.0000 </r>
       <r>    3.2339    1.0000 </r>
       <r>    5.6150    1.0000 </r>
       <r>    5.6150    1.0000 </r>
       <r>    5.6432    1.0000 </r>
       <r>    6.1638    1.0000 </r>
       <r>   18.6334    0.0000 </r>
       <r>   21.3764    0.0000 </r>
       <r>   21.3764    0.0000 </r>
       <r>   25.0881    0.0000 </r>
       <r>   27.6462    0.0000 </r>
       <r>   48.2289    0.0000 </r>
      </set>
      <set comment="kpoint 20">
       <r>    2.5324    1.0000 </r>
       <r>    3.1779    1.0000 </r>
       <r>    5.6667    1.0000 </r>
       <r>    5.6937    1.0000 </r>
       <r>    5.6937    1.0000 </r>
       <r>    6.7003    1.0000 </r>
       <r>   17.5948    0.0000 </r>
       <r>   21.0566    0.0000 </r>
       <r>   21.0566    0.0000 </r>
       <r>   24.9858    0.0000 </r>
       <r>   27.5412    0.0000 </r>
       <r>   48.4518    0.0000 </r>
      </set>
      <set comment="kpoint 21">
       <r>    2.5658    1.0000 </r>
       <r>    3.1309    1.0000 </r>
       <r>    5.6865    1.0000 </r>
       <r>    5.7620    1.0000 </r>
       <r>    5.7620    1.0000 </r>
       <r>    7.2731    1.0000 </r>
       <r>   16.6269    0.0000 </r>
       <r>   20.7905    0.0000 </r>
       <r>   20.7905    0.0000 </r>
       <r>   24.9030    0.0000 </r>
       <r>   27.4602    0.0000 </r>
       <r>   48.6575    0.0000 </r>
      </set>
      <set comment="kpoint 22">
       <r>    2.5807    1.0000 </r>
       <r>    3.0935    1.0000 </r>
       <r>    5.7023    1.0000 </r>
       <r>    5.8175    1.0000 </r>
       <r>    5.8175    1.0000 </r>
       <r>    7.8438    1.0000 </r>
       <r>   15.7577    0.0000 </r>
       <r>   20.5806    0.0000 </r>
       <r>   20.5806    0.0000 </r>
       <r>   24.8392    0.0000 </r>
       <r>   27.4002    0.0000 </r>
       <r>   48.8353    0.0000 </r>
      </set>
      <set comment="kpoint 23">
       <r>    2.5861    1.0000 </r>
       <r>    3.0665    1.0000 </r>
       <r>    5.7138    1.0000 </r>
       <r>    5.8586    1.0000 </r>
       <r>    5.8586    1.0000 </r>
       <r>    8.3577    1.0000 </r>
       <r>   15.0348    0.0000 </r>
       <r>   20.4290    0.0000 </r>
       <r>   20.4290    0.0000 </r>
       <r>   24.7939    0.0000 </r>
       <r>   27.3589    0.0000 </r>
       <r>   48.9735    0.0000 </r>
      </set>
      <set comment="kpoint 24">
       <r>    2.5873    1.0000 </r>
       <r>    3.0501    1.0000 </r>
       <r>    5.7208    1.0000 </r>
       <r>    5.8839    1.0000 </r>
       <r>    5.8839    1.0000 </r>
       <r>    8.7340    1.0000 </r>
       <r>   14.5347    0.0000 </r>
       <r>   20.3373    0.0000 </r>
       <r>   20.3373    0.0000 </r>
       <r>   24.7669    0.0000 </r>
       <r>   27.3347    0.0000 </r>
       <r>   49.0617    0.0000 </r>
      </set>
      <set comment="kpoint 25">
       <r>    2.5875    1.0000 </r>
       <r>    3.0446    1.0000 </r>
       <r>    5.7231    1.0000 </r>
       <r>    5.8924    1.0000 </r>
       <r>    5.8924    1.0000 </r>
       <r>    8.8758    1.0000 </r>
       <r>   14.3519    0.0000 </r>
       <r>   20.3067    0.0000 </r>
       <r>   20.3067    0.0000 </r>
       <r>   24.7579    0.0000 </r>
       <r>   27.3268    0.0000 </r>
       <r>   49.0921    0.0000 </r>
      </set>
      <set comment="kpoint 26">
       <r>    2.5875    1.0000 </r>
       <r>    3.0446    1.0000 </r>
       <r>    5.7231    1.0000 </r>
       <r>    5.8924    1.0000 </r>
       <r>    5.8924    1.0000 </r>
       <r>    8.8758    1.0000 </r>
       <r>   14.3519    0.0000 </r>
       <r>   20.3067    0.0000 </r>
       <r>   20.3067    0.0000 </r>
       <r>   24.7579    0.0000 </r>
       <r>   27.3268    0.0000 </r>
       <r>   49.0921    0.0000 </r>
      </set>
      <set comment="kpoint 27">
       <r>    2.5899    1.0000 </r>
       <r>    3.0461    1.0000 </r>
       <r>    5.7214    1.0000 </r>
       <r>    5.8828    1.0000 </r>
       <r>    5.8924    1.0000 </r>
       <r>    8.8901    1.0000 </r>
       <r>   14.3538    0.0000 </r>
       <r>   20.2672    0.0000 </r>
       <r>   20.2823    0.0000 </r>
       <r>   24.8038    0.0000 </r>
       <r>   27.3625    0.0000 </r>
       <r>   49.0405    0.0000 </r>
      </set>
      <set comment="kpoint 28">
       <r>    2.5972    1.0000 </r>
       <r>    3.0504    1.0000 </r>
       <r>    5.7160    1.0000 </r>
       <r>    5.8544    1.0000 </r>
       <r>    5.8924    1.0000 </r>
       <r>    8.9325    1.0000 </r>
       <r>   14.3595    0.0000 </r>
       <r>   20.1534    0.0000 </r>
       <r>   20.2108    0.0000 </r>
       <r>   24.9369    0.0000 </r>
       <r>   27.4682    0.0000 </r>
       <r>   48.8817    0.0000 </r>
      </set>
      <set comment="kpoint 29">
       <r>    2.6092    1.0000 </r>
       <r>    3.0576    1.0000 </r>
       <r>    5.7071    1.0000 </r>
       <r>    5.8089    1.0000 </r>
       <r>    5.8924    1.0000 </r>
       <r>    9.0015    1.0000 </r>
       <r>   14.3692    0.0000 </r>
       <r>   19.9767    0.0000 </r>
       <r>   20.0965    0.0000 </r>
       <r>   25.1459    0.0000 </r>
       <r>   27.6394    0.0000 </r>
       <r>   48.6093    0.0000 </r>
      </set>
      <set comment="kpoint 30">
       <r>    2.6260    1.0000 </r>
       <r>    3.0677    1.0000 </r>
       <r>    5.6946    1.0000 </r>
       <r>    5.7484    1.0000 </r>
       <r>    5.8925    1.0000 </r>
       <r>    9.0947    1.0000 </r>
       <r>   14.3828    0.0000 </r>
       <r>   19.7511    0.0000 </r>
       <r>   19.9455    0.0000 </r>
       <r>   25.4167    0.0000 </r>
       <r>   27.8700    0.0000 </r>
       <r>   48.2236    0.0000 </r>
      </set>
      <set comment="kpoint 31">
       <r>    2.6473    1.0000 </r>
       <r>    3.0807    1.0000 </r>
       <r>    5.6756    1.0000 </r>
       <r>    5.6788    1.0000 </r>
       <r>    5.8925    1.0000 </r>
       <r>    9.2096    1.0000 </r>
       <r>   14.4004    0.0000 </r>
       <r>   19.4897    0.0000 </r>
       <r>   19.7647    0.0000 </r>
       <r>   25.7362    0.0000 </r>
       <r>   28.1530    0.0000 </r>
       <r>   47.7387    0.0000 </r>
      </set>
      <set comment="kpoint 32">
       <r>    2.6729    1.0000 </r>
       <r>    3.0967    1.0000 </r>
       <r>    5.5929    1.0000 </r>
       <r>    5.6596    1.0000 </r>
       <r>    5.8925    1.0000 </r>
       <r>    9.3437    0.1384 </r>
       <r>   14.4222    0.0000 </r>
       <r>   19.2028    0.0000 </r>
       <r>   19.5609    0.0000 </r>
       <r>   26.0942    0.0000 </r>
       <r>   28.4813    0.0000 </r>
       <r>   47.1773    0.0000 </r>
      </set>
      <set comment="kpoint 33">
       <r>    2.7027    1.0000 </r>
       <r>    3.1155    1.0000 </r>
       <r>    5.5026    1.0000 </r>
       <r>    5.6372    1.0000 </r>
       <r>    5.8926    1.0000 </r>
       <r>    9.4946    0.0000 </r>
       <r>   14.4482    0.0000 </r>
       <r>   18.8985    0.0000 </r>
       <r>   19.3403    0.0000 </r>
       <r>   26.4825    0.0000 </r>
       <r>   28.8486    0.0000 </r>
       <r>   46.5631    0.0000 </r>
      </set>
      <set comment="kpoint 34">
       <r>    2.7362    1.0000 </r>
       <r>    3.1374    1.0000 </r>
       <r>    5.4069    1.0000 </r>
       <r>    5.6117    1.0000 </r>
       <r>    5.8926    1.0000 </r>
       <r>    9.6603    0.0000 </r>
       <r>   14.4786    0.0000 </r>
       <r>   18.5825    0.0000 </r>
       <r>   19.1084    0.0000 </r>
       <r>   26.8955    0.0000 </r>
       <r>   29.2491    0.0000 </r>
       <r>   45.9145    0.0000 </r>
      </set>
      <set comment="kpoint 35">
       <r>    2.7732    1.0000 </r>
       <r>    3.1622    1.0000 </r>
       <r>    5.3075    1.0000 </r>
       <r>    5.5834    1.0000 </r>
       <r>    5.8926    1.0000 </r>
       <r>    9.8389    0.0000 </r>
       <r>   14.5135    0.0000 </r>
       <r>   18.2590    0.0000 </r>
       <r>   18.8695    0.0000 </r>
       <r>   27.3292    0.0000 </r>
       <r>   29.6782    0.0000 </r>
       <r>   45.2450    0.0000 </r>
      </set>
      <set comment="kpoint 36">
       <r>    2.8133    1.0000 </r>
       <r>    3.1900    1.0000 </r>
       <r>    5.2057    1.0000 </r>
       <r>    5.5525    1.0000 </r>
       <r>    5.8927    1.0000 </r>
       <r>   10.0290    0.0000 </r>
       <r>   14.5532    0.0000 </r>
       <r>   17.9310    0.0000 </r>
       <r>   18.6274    0.0000 </r>
       <r>   27.7804    0.0000 </r>
       <r>   30.1316    0.0000 </r>
       <r>   44.5636    0.0000 </r>
      </set>
      <set comment="kpoint 37">
       <r>    2.8561    1.0000 </r>
       <r>    3.2208    1.0000 </r>
       <r>    5.1028    1.0000 </r>
       <r>    5.5193    1.0000 </r>
       <r>    5.8927    1.0000 </r>
       <r>   10.2296    0.0000 </r>
       <r>   14.5979    0.0000 </r>
       <r>   17.6006    0.0000 </r>
       <r>   18.3851    0.0000 </r>
       <r>   28.2471    0.0000 </r>
       <r>   30.6059    0.0000 </r>
       <r>   43.8763    0.0000 </r>
      </set>
      <set comment="kpoint 38">
       <r>    2.9009    1.0000 </r>
       <r>    3.2547    1.0000 </r>
       <r>    4.9996    1.0000 </r>
       <r>    5.4841    1.0000 </r>
       <r>    5.8928    1.0000 </r>
       <r>   10.4394    0.0000 </r>
       <r>   14.6477    0.0000 </r>
       <r>   17.2696    0.0000 </r>
       <r>   18.1448    0.0000 </r>
       <r>   28.7276    0.0000 </r>
       <r>   31.0980    0.0000 </r>
       <r>   43.1873    0.0000 </r>
      </set>
      <set comment="kpoint 39">
       <r>    2.9472    1.0000 </r>
       <r>    3.2917    1.0000 </r>
       <r>    4.8969    1.0000 </r>
       <r>    5.4475    1.0000 </r>
       <r>    5.8928    1.0000 </r>
       <r>   10.6579    0.0000 </r>
       <r>   14.7030    0.0000 </r>
       <r>   16.9390    0.0000 </r>
       <r>   17.9086    0.0000 </r>
       <r>   29.2208    0.0000 </r>
       <r>   31.6049    0.0000 </r>
       <r>   42.4994    0.0000 </r>
      </set>
      <set comment="kpoint 40">
       <r>    2.9944    1.0000 </r>
       <r>    3.3318    1.0000 </r>
       <r>    4.7952    1.0000 </r>
       <r>    5.4098    1.0000 </r>
       <r>    5.8929    1.0000 </r>
       <r>   10.8843    0.0000 </r>
       <r>   14.7638    0.0000 </r>
       <r>   16.6099    0.0000 </r>
       <r>   17.6779    0.0000 </r>
       <r>   29.7258    0.0000 </r>
       <r>   32.1240    0.0000 </r>
       <r>   41.8147    0.0000 </r>
      </set>
      <set comment="kpoint 41">
       <r>    3.0415    1.0000 </r>
       <r>    3.3750    1.0000 </r>
       <r>    4.6951    1.0000 </r>
       <r>    5.3717    1.0000 </r>
       <r>    5.8929    1.0000 </r>
       <r>   11.1182    0.0000 </r>
       <r>   14.8304    0.0000 </r>
       <r>   16.2830    0.0000 </r>
       <r>   17.4541    0.0000 </r>
       <r>   30.2420    0.0000 </r>
       <r>   32.6524    0.0000 </r>
       <r>   41.1346    0.0000 </r>
      </set>
      <set comment="kpoint 42">
       <r>    3.0879    1.0000 </r>
       <r>    3.4214    1.0000 </r>
       <r>    4.5970    1.0000 </r>
       <r>    5.3340    1.0000 </r>
       <r>    5.8930    1.0000 </r>
       <r>   11.3590    0.0000 </r>
       <r>   14.9031    0.0000 </r>
       <r>   15.9587    0.0000 </r>
       <r>   17.2380    0.0000 </r>
       <r>   30.7688    0.0000 </r>
       <r>   33.1867    0.0000 </r>
       <r>   40.4601    0.0000 </r>
      </set>
      <set comment="kpoint 43">
       <r>    3.1326    1.0000 </r>
       <r>    3.4709    1.0000 </r>
       <r>    4.5012    1.0000 </r>
       <r>    5.2973    1.0000 </r>
       <r>    5.8930    1.0000 </r>
       <r>   11.6064    0.0000 </r>
       <r>   14.9818    0.0000 </r>
       <r>   15.6376    0.0000 </r>
       <r>   17.0307    0.0000 </r>
       <r>   31.3059    0.0000 </r>
       <r>   33.7229    0.0000 </r>
       <r>   39.7922    0.0000 </r>
      </set>
      <set comment="kpoint 44">
       <r>    3.1744    1.0000 </r>
       <r>    3.5237    1.0000 </r>
       <r>    4.4078    1.0000 </r>
       <r>    5.2627    1.0000 </r>
       <r>    5.8930    1.0000 </r>
       <r>   11.8601    0.0000 </r>
       <r>   15.0668    0.0000 </r>
       <r>   15.3200    0.0000 </r>
       <r>   16.8328    0.0000 </r>
       <r>   31.8530    0.0000 </r>
       <r>   34.2555    0.0000 </r>
       <r>   39.1313    0.0000 </r>
      </set>
      <set comment="kpoint 45">
       <r>    3.2125    1.0000 </r>
       <r>    3.5797    1.0000 </r>
       <r>    4.3171    1.0000 </r>
       <r>    5.2309    1.0000 </r>
       <r>    5.8931    1.0000 </r>
       <r>   12.1198    0.0000 </r>
       <r>   15.0061    0.0000 </r>
       <r>   15.1578    0.0000 </r>
       <r>   16.6452    0.0000 </r>
       <r>   32.4098    0.0000 </r>
       <r>   34.7765    0.0000 </r>
       <r>   38.4779    0.0000 </r>
      </set>
      <set comment="kpoint 46">
       <r>    3.2456    1.0000 </r>
       <r>    3.6390    1.0000 </r>
       <r>    4.2293    1.0000 </r>
       <r>    5.2031    1.0000 </r>
       <r>    5.8931    1.0000 </r>
       <r>   12.3853    0.0000 </r>
       <r>   14.6964    0.0000 </r>
       <r>   15.2541    0.0000 </r>
       <r>   16.4692    0.0000 </r>
       <r>   32.9761    0.0000 </r>
       <r>   35.2737    0.0000 </r>
       <r>   37.8323    0.0000 </r>
      </set>
      <set comment="kpoint 47">
       <r>    3.2728    1.0000 </r>
       <r>    3.7015    1.0000 </r>
       <r>    4.1445    1.0000 </r>
       <r>    5.1802    1.0000 </r>
       <r>    5.8931    1.0000 </r>
       <r>   12.6564    0.0000 </r>
       <r>   14.3908    0.0000 </r>
       <r>   15.3542    0.0000 </r>
       <r>   16.3067    0.0000 </r>
       <r>   33.5518    0.0000 </r>
       <r>   35.7276    0.0000 </r>
       <r>   37.1949    0.0000 </r>
      </set>
      <set comment="kpoint 48">
       <r>    3.2929    1.0000 </r>
       <r>    3.7672    1.0000 </r>
       <r>    4.0626    1.0000 </r>
       <r>    5.1631    1.0000 </r>
       <r>    5.8931    1.0000 </r>
       <r>   12.9329    0.0000 </r>
       <r>   14.0897    0.0000 </r>
       <r>   15.4535    0.0000 </r>
       <r>   16.1625    0.0000 </r>
       <r>   34.1366    0.0000 </r>
       <r>   36.1073    0.0000 </r>
       <r>   36.5659    0.0000 </r>
      </set>
      <set comment="kpoint 49">
       <r>    3.3054    1.0000 </r>
       <r>    3.8362    1.0000 </r>
       <r>    3.9840    1.0000 </r>
       <r>    5.1525    1.0000 </r>
       <r>    5.8932    1.0000 </r>
       <r>   13.2147    0.0000 </r>
       <r>   13.7932    0.0000 </r>
       <r>   15.5391    0.0000 </r>
       <r>   16.0499    0.0000 </r>
       <r>   34.7306    0.0000 </r>
       <r>   35.9454    0.0000 </r>
       <r>   36.3686    0.0000 </r>
      </set>
      <set comment="kpoint 50">
       <r>    3.3096    1.0000 </r>
       <r>    3.9085    1.0000 </r>
       <r>    3.9085    1.0000 </r>
       <r>    5.1489    1.0000 </r>
       <r>    5.8932    1.0000 </r>
       <r>   13.5015    0.0000 </r>
       <r>   13.5015    0.0000 </r>
       <r>   15.5776    0.0000 </r>
       <r>   16.0024    0.0000 </r>
       <r>   35.3336    0.0000 </r>
       <r>   35.3336    0.0000 </r>
       <r>   36.4632    0.0000 </r>
      </set>
      <set comment="kpoint 51">
       <r>    3.3096    1.0000 </r>
       <r>    3.9085    1.0000 </r>
       <r>    3.9085    1.0000 </r>
       <r>    5.1489    1.0000 </r>
       <r>    5.8932    1.0000 </r>
       <r>   13.5015    0.0000 </r>
       <r>   13.5015    0.0000 </r>
       <r>   15.5776    0.0000 </r>
       <r>   16.0024    0.0000 </r>
       <r>   35.3336    0.0000 </r>
       <r>   35.3336    0.0000 </r>
       <r>   36.4632    0.0000 </r>
      </set>
      <set comment="kpoint 52">
       <r>    3.3090    1.0000 </r>
       <r>    3.8715    1.0000 </r>
       <r>    3.9459    1.0000 </r>
       <r>    5.1498    1.0000 </r>
       <r>    5.8926    1.0000 </r>
       <r>   13.3592    0.0000 </r>
       <r>   13.6238    0.0000 </r>
       <r>   15.5785    0.0000 </r>
       <r>   16.0300    0.0000 </r>
       <r>   35.0029    0.0000 </r>
       <r>   35.6394    0.0000 </r>
       <r>   36.4675    0.0000 </r>
      </set>
      <set comment="kpoint 53">
       <r>    3.3073    1.0000 </r>
       <r>    3.8344    1.0000 </r>
       <r>    3.9841    1.0000 </r>
       <r>    5.1524    1.0000 </r>
       <r>    5.8908    1.0000 </r>
       <r>   13.2218    0.0000 </r>
       <r>   13.7013    0.0000 </r>
       <r>   15.5697    0.0000 </r>
       <r>   16.1244    0.0000 </r>
       <r>   34.6327    0.0000 </r>
       <r>   35.9496    0.0000 </r>
       <r>   36.4700    0.0000 </r>
      </set>
      <set comment="kpoint 54">
       <r>    3.3046    1.0000 </r>
       <r>    3.7977    1.0000 </r>
       <r>    4.0229    1.0000 </r>
       <r>    5.1566    1.0000 </r>
       <r>    5.8879    1.0000 </r>
       <r>   13.0894    0.0000 </r>
       <r>   13.7384    0.0000 </r>
       <r>   15.5458    0.0000 </r>
       <r>   16.2864    0.0000 </r>
       <r>   34.2364    0.0000 </r>
       <r>   36.2640    0.0000 </r>
       <r>   36.4639    0.0000 </r>
      </set>
      <set comment="kpoint 55">
       <r>    3.3009    1.0000 </r>
       <r>    3.7613    1.0000 </r>
       <r>    4.0624    1.0000 </r>
       <r>    5.1623    1.0000 </r>
       <r>    5.8838    1.0000 </r>
       <r>   12.9621    0.0000 </r>
       <r>   13.7433    0.0000 </r>
       <r>   15.5119    0.0000 </r>
       <r>   16.5023    0.0000 </r>
       <r>   33.8220    0.0000 </r>
       <r>   36.4483    0.0000 </r>
       <r>   36.5828    0.0000 </r>
      </set>
      <set comment="kpoint 56">
       <r>    3.2962    1.0000 </r>
       <r>    3.7257    1.0000 </r>
       <r>    4.1024    1.0000 </r>
       <r>    5.1693    1.0000 </r>
       <r>    5.8786    1.0000 </r>
       <r>   12.8399    0.0000 </r>
       <r>   13.7246    0.0000 </r>
       <r>   15.4737    0.0000 </r>
       <r>   16.7576    0.0000 </r>
       <r>   33.3946    0.0000 </r>
       <r>   36.4245    0.0000 </r>
       <r>   36.9059    0.0000 </r>
      </set>
      <set comment="kpoint 57">
       <r>    3.2906    1.0000 </r>
       <r>    3.6910    1.0000 </r>
       <r>    4.1426    1.0000 </r>
       <r>    5.1774    1.0000 </r>
       <r>    5.8722    1.0000 </r>
       <r>   12.7230    0.0000 </r>
       <r>   13.6899    0.0000 </r>
       <r>   15.4342    0.0000 </r>
       <r>   17.0414    0.0000 </r>
       <r>   32.9580    0.0000 </r>
       <r>   36.3944    0.0000 </r>
       <r>   37.2332    0.0000 </r>
      </set>
      <set comment="kpoint 58">
       <r>    3.2842    1.0000 </r>
       <r>    3.6574    1.0000 </r>
       <r>    4.1830    1.0000 </r>
       <r>    5.1865    1.0000 </r>
       <r>    5.8648    1.0000 </r>
       <r>   12.6116    0.0000 </r>
       <r>   13.6449    0.0000 </r>
       <r>   15.3953    0.0000 </r>
       <r>   17.3458    0.0000 </r>
       <r>   32.5154    0.0000 </r>
       <r>   36.3599    0.0000 </r>
       <r>   37.5648    0.0000 </r>
      </set>
      <set comment="kpoint 59">
       <r>    3.2770    1.0000 </r>
       <r>    3.6254    1.0000 </r>
       <r>    4.2234    1.0000 </r>
       <r>    5.1963    1.0000 </r>
       <r>    5.8563    1.0000 </r>
       <r>   12.5057    0.0000 </r>
       <r>   13.5938    0.0000 </r>
       <r>   15.3579    0.0000 </r>
       <r>   17.6656    0.0000 </r>
       <r>   32.0690    0.0000 </r>
       <r>   36.3226    0.0000 </r>
       <r>   37.9006    0.0000 </r>
      </set>
      <set comment="kpoint 60">
       <r>    3.2691    1.0000 </r>
       <r>    3.5949    1.0000 </r>
       <r>    4.2637    1.0000 </r>
       <r>    5.2066    1.0000 </r>
       <r>    5.8468    1.0000 </r>
       <r>   12.4055    0.0000 </r>
       <r>   13.5394    0.0000 </r>
       <r>   15.3224    0.0000 </r>
       <r>   17.9968    0.0000 </r>
       <r>   31.6208    0.0000 </r>
       <r>   36.2838    0.0000 </r>
       <r>   38.2406    0.0000 </r>
      </set>
      <set comment="kpoint 61">
       <r>    3.2605    1.0000 </r>
       <r>    3.5664    1.0000 </r>
       <r>    4.3035    1.0000 </r>
       <r>    5.2174    1.0000 </r>
       <r>    5.8365    1.0000 </r>
       <r>   12.3111    0.0000 </r>
       <r>   13.4838    0.0000 </r>
       <r>   15.2891    0.0000 </r>
       <r>   18.3366    0.0000 </r>
       <r>   31.1727    0.0000 </r>
       <r>   36.2448    0.0000 </r>
       <r>   38.5847    0.0000 </r>
      </set>
      <set comment="kpoint 62">
       <r>    3.2513    1.0000 </r>
       <r>    3.5398    1.0000 </r>
       <r>    4.3427    1.0000 </r>
       <r>    5.2283    1.0000 </r>
       <r>    5.8253    1.0000 </r>
       <r>   12.2225    0.0000 </r>
       <r>   13.4287    0.0000 </r>
       <r>   15.2582    0.0000 </r>
       <r>   18.6829    0.0000 </r>
       <r>   30.7263    0.0000 </r>
       <r>   36.2063    0.0000 </r>
       <r>   38.9328    0.0000 </r>
      </set>
      <set comment="kpoint 63">
       <r>    3.2415    1.0000 </r>
       <r>    3.5155    1.0000 </r>
       <r>    4.3810    1.0000 </r>
       <r>    5.2393    1.0000 </r>
       <r>    5.8135    1.0000 </r>
       <r>   12.1400    0.0000 </r>
       <r>   13.3750    0.0000 </r>
       <r>   15.2296    0.0000 </r>
       <r>   19.0337    0.0000 </r>
       <r>   30.2829    0.0000 </r>
       <r>   36.1690    0.0000 </r>
       <r>   39.2849    0.0000 </r>
      </set>
      <set comment="kpoint 64">
       <r>    3.2314    1.0000 </r>
       <r>    3.4935    1.0000 </r>
       <r>    4.4183    1.0000 </r>
       <r>    5.2501    1.0000 </r>
       <r>    5.8011    1.0000 </r>
       <r>   12.0636    0.0000 </r>
       <r>   13.3237    0.0000 </r>
       <r>   15.2034    0.0000 </r>
       <r>   19.3873    0.0000 </r>
       <r>   29.8443    0.0000 </r>
       <r>   36.1335    0.0000 </r>
       <r>   39.6409    0.0000 </r>
      </set>
      <set comment="kpoint 65">
       <r>    3.2211    1.0000 </r>
       <r>    3.4737    1.0000 </r>
       <r>    4.4541    1.0000 </r>
       <r>    5.2606    1.0000 </r>
       <r>    5.7885    1.0000 </r>
       <r>   11.9934    0.0000 </r>
       <r>   13.2753    0.0000 </r>
       <r>   15.1797    0.0000 </r>
       <r>   19.7418    0.0000 </r>
       <r>   29.4121    0.0000 </r>
       <r>   36.1001    0.0000 </r>
       <r>   40.0005    0.0000 </r>
      </set>
      <set comment="kpoint 66">
       <r>    3.2108    1.0000 </r>
       <r>    3.4563    1.0000 </r>
       <r>    4.4881    1.0000 </r>
       <r>    5.2706    1.0000 </r>
       <r>    5.7757    1.0000 </r>
       <r>   11.9296    0.0000 </r>
       <r>   13.2305    0.0000 </r>
       <r>   15.1583    0.0000 </r>
       <r>   20.0953    0.0000 </r>
       <r>   28.9883    0.0000 </r>
       <r>   36.0692    0.0000 </r>
       <r>   40.3637    0.0000 </r>
      </set>
      <set comment="kpoint 67">
       <r>    3.2007    1.0000 </r>
       <r>    3.4411    1.0000 </r>
       <r>    4.5201    1.0000 </r>
       <r>    5.2799    1.0000 </r>
       <r>    5.7630    1.0000 </r>
       <r>   11.8722    0.0000 </r>
       <r>   13.1895    0.0000 </r>
       <r>   15.1393    0.0000 </r>
       <r>   20.4452    0.0000 </r>
       <r>   28.5754    0.0000 </r>
       <r>   36.0411    0.0000 </r>
       <r>   40.7300    0.0000 </r>
      </set>
      <set comment="kpoint 68">
       <r>    3.1910    1.0000 </r>
       <r>    3.4281    1.0000 </r>
       <r>    4.5496    1.0000 </r>
       <r>    5.2885    1.0000 </r>
       <r>    5.7508    1.0000 </r>
       <r>   11.8213    0.0000 </r>
       <r>   13.1527    0.0000 </r>
       <r>   15.1226    0.0000 </r>
       <r>   20.7882    0.0000 </r>
       <r>   28.1767    0.0000 </r>
       <r>   36.0159    0.0000 </r>
       <r>   41.0988    0.0000 </r>
      </set>
      <set comment="kpoint 69">
       <r>    3.1820    1.0000 </r>
       <r>    3.4172    1.0000 </r>
       <r>    4.5763    1.0000 </r>
       <r>    5.2962    1.0000 </r>
       <r>    5.7392    1.0000 </r>
       <r>   11.7770    0.0000 </r>
       <r>   13.1203    0.0000 </r>
       <r>   15.1082    0.0000 </r>
       <r>   21.1202    0.0000 </r>
       <r>   27.7964    0.0000 </r>
       <r>   35.9939    0.0000 </r>
       <r>   41.4695    0.0000 </r>
      </set>
      <set comment="kpoint 70">
       <r>    3.1740    1.0000 </r>
       <r>    3.4081    1.0000 </r>
       <r>    4.5998    1.0000 </r>
       <r>    5.3029    1.0000 </r>
       <r>    5.7287    1.0000 </r>
       <r>   11.7394    0.0000 </r>
       <r>   13.0926    0.0000 </r>
       <r>   15.0961    0.0000 </r>
       <r>   21.4350    0.0000 </r>
       <r>   27.4408    0.0000 </r>
       <r>   35.9750    0.0000 </r>
       <r>   41.8406    0.0000 </r>
      </set>
      <set comment="kpoint 71">
[...]
       </set>
       <set comment="band 5">
        <r>  0.0000  0.0000  0.0000  0.0000  0.4982  0.4982  0.0000  0.0000  0.0000 </r>
       </set>
       <set comment="band 6">
        <r>  0.0000  0.5242  0.0000  0.0000  0.0520  0.0520  0.0000  0.0000  0.0000 </r>
       </set>
       <set comment="band 7">
        <r>  0.3813  0.0000  0.0091  0.0091  0.0000  0.0000  0.0772  0.0000  0.2315 </r>
       </set>
       <set comment="band 8">
        <r>  0.0978  0.0000  0.2092  0.2092  0.0000  0.0000  0.0030  0.0906  0.0091 </r>
       </set>
       <set comment="band 9">
        <r>  0.0000  0.0000  0.2870  0.2870  0.0000  0.0000  0.0125  0.0000  0.0042 </r>
       </set>
       <set comment="band 10">
        <r>  0.1034  0.0000  0.0017  0.0017  0.0000  0.0000  0.0106  0.4251  0.0319 </r>
       </set>
       <set comment="band 11">
        <r>  0.2212  0.0000  0.0718  0.0718  0.0000  0.0000  0.0332  0.0857  0.0995 </r>
       </set>
       <set comment="band 12">
        <r>  0.0000  0.0000  0.0000  0.0000  0.0745  0.0745  0.0000  0.0000  0.0000 </r>
       </set>
      </set>
      <set comment="kpoint 240">
       <set comment="band 1">
        <r>  0.0370  0.0000  0.0022  0.0022  0.0000  0.0000  0.1985  0.0038  0.5955 </r>
       </set>
       <set comment="band 2">
        <r>  0.0000  0.0000  0.0030  0.0030  0.0000  0.0000  0.0008  0.8970  0.0023 </r>
       </set>
       <set comment="band 3">
        <r>  0.0000  0.0441  0.0000  0.0000  0.4556  0.4556  0.0000  0.0000  0.0000 </r>
       </set>
       <set comment="band 4">
        <r>  0.0000  0.0000  0.0006  0.0006  0.0000  0.0000  0.7428  0.0000  0.2476 </r>
       </set>
       <set comment="band 5">
        <r>  0.0000  0.0000  0.0000  0.0000  0.4983  0.4983  0.0000  0.0000  0.0000 </r>
       </set>
       <set comment="band 6">
        <r>  0.0000  0.5303  0.0000  0.0000  0.0464  0.0464  0.0000  0.0000  0.0000 </r>
       </set>
       <set comment="band 7">
        <r>  0.3855  0.0000  0.0072  0.0072  0.0000  0.0000  0.0776  0.0000  0.2327 </r>
       </set>
       <set comment="band 8">
        <r>  0.0858  0.0000  0.2160  0.2160  0.0000  0.0000  0.0029  0.0851  0.0088 </r>
       </set>
       <set comment="band 9">
        <r>  0.0000  0.0000  0.2878  0.2878  0.0000  0.0000  0.0104  0.0000  0.0035 </r>
       </set>
       <set comment="band 10">
        <r>  0.0909  0.0000  0.0031  0.0031  0.0000  0.0000  0.0092  0.4439  0.0276 </r>
       </set>
       <set comment="band 11">
        <r>  0.2422  0.0000  0.0654  0.0654  0.0000  0.0000  0.0348  0.0734  0.1044 </r>
       </set>
       <set comment="band 12">
        <r>  0.0000  0.0000  0.0000  0.0000  0.0672  0.0672  0.0000  0.0000  0.0000 </r>
       </set>
      </set>
      <set comment="kpoint 241">
       <set comment="band 1">
        <r>  0.0381  0.0000  0.0019  0.0019  0.0000  0.0000  0.1985  0.0025  0.5956 </r>
       </set>
       <set comment="band 2">
        <r>  0.0000  0.0000  0.0024  0.0024  0.0000  0.0000  0.0005  0.8996  0.0015 </r>
       </set>
       <set comment="band 3">
        <r>  0.0000  0.0389  0.0000  0.0000  0.4608  0.4608  0.0000  0.0000  0.0000 </r>
       </set>
       <set comment="band 4">
        <r>  0.0000  0.0000  0.0005  0.0005  0.0000  0.0000  0.7435  0.0000  0.2478 </r>
       </set>
       <set comment="band 5">
        <r>  0.0000  0.0000  0.0000  0.0000  0.4984  0.4984  0.0000  0.0000  0.0000 </r>
       </set>
       <set comment="band 6">
        <r>  0.0000  0.5366  0.0000  0.0000  0.0405  0.0405  0.0000  0.0000  0.0000 </r>
       </set>
       <set comment="band 7">
        <r>  0.3887  0.0000  0.0057  0.0057  0.0000  0.0000  0.0780  0.0000  0.2339 </r>
       </set>
       <set comment="band 8">
        <r>  0.0744  0.0000  0.2232  0.2232  0.0000  0.0000  0.0028  0.0788  0.0083 </r>
       </set>
       <set comment="band 9">
        <r>  0.0000  0.0000  0.2884  0.2884  0.0000  0.0000  0.0084  0.0000  0.0028 </r>
       </set>
       <set comment="band 10">
        <r>  0.0767  0.0000  0.0048  0.0048  0.0000  0.0000  0.0077  0.4642  0.0230 </r>
       </set>
       <set comment="band 11">
        <r>  0.2652  0.0000  0.0580  0.0580  0.0000  0.0000  0.0366  0.0602  0.1097 </r>
       </set>
       <set comment="band 12">
        <r>  0.0000  0.0000  0.0000  0.0000  0.0595  0.0595  0.0000  0.0000  0.0000 </r>
       </set>
      </set>
      <set comment="kpoint 242">
       <set comment="band 1">
        <r>  0.0391  0.0000  0.0015  0.0015  0.0000  0.0000  0.1985  0.0015  0.5955 </r>
       </set>
       <set comment="band 2">
        <r>  0.0000  0.0000  0.0018  0.0018  0.0000  0.0000  0.0003  0.9017  0.0009 </r>
       </set>
       <set comment="band 3">
        <r>  0.0000  0.0333  0.0000  0.0000  0.4664  0.4664  0.0000  0.0000  0.0000 </r>
       </set>
       <set comment="band 4">
        <r>  0.0000  0.0000  0.0004  0.0004  0.0000  0.0000  0.7441  0.0000  0.2480 </r>
       </set>
       <set comment="band 5">
        <r>  0.0000  0.0000  0.0000  0.0000  0.4984  0.4984  0.0000  0.0000  0.0000 </r>
       </set>
       <set comment="band 6">
        <r>  0.0000  0.5432  0.0000  0.0000  0.0344  0.0344  0.0000  0.0000  0.0000 </r>
       </set>
       <set comment="band 7">
        <r>  0.3913  0.0000  0.0044  0.0044  0.0000  0.0000  0.0783  0.0000  0.2350 </r>
       </set>
       <set comment="band 8">
        <r>  0.0634  0.0000  0.2308  0.2308  0.0000  0.0000  0.0025  0.0717  0.0076 </r>
       </set>
       <set comment="band 9">
        <r>  0.0000  0.0000  0.2891  0.2891  0.0000  0.0000  0.0067  0.0000  0.0022 </r>
       </set>
       <set comment="band 10">
        <r>  0.0612  0.0000  0.0066  0.0066  0.0000  0.0000  0.0060  0.4859  0.0180 </r>
       </set>
       <set comment="band 11">
        <r>  0.2897  0.0000  0.0498  0.0498  0.0000  0.0000  0.0385  0.0465  0.1154 </r>
       </set>
       <set comment="band 12">
        <r>  0.0000  0.0000  0.0000  0.0000  0.0516  0.0516  0.0000  0.0000  0.0000 </r>
       </set>
      </set>
      <set comment="kpoint 243">
       <set comment="band 1">
        <r>  0.0400  0.0000  0.0012  0.0012  0.0000  0.0000  0.1984  0.0009  0.5952 </r>
       </set>
       <set comment="band 2">
        <r>  0.0000  0.0000  0.0014  0.0014  0.0000  0.0000  0.0002  0.9033  0.0005 </r>
       </set>
       <set comment="band 3">
        <r>  0.0000  0.0000  0.0003  0.0003  0.0000  0.0000  0.7446  0.0000  0.2482 </r>
       </set>
       <set comment="band 4">
        <r>  0.0000  0.0276  0.0000  0.0000  0.4721  0.4721  0.0000  0.0000  0.0000 </r>
       </set>
       <set comment="band 5">
        <r>  0.0000  0.0000  0.0000  0.0000  0.4985  0.4985  0.0000  0.0000  0.0000 </r>
       </set>
       <set comment="band 6">
        <r>  0.0000  0.5499  0.0000  0.0000  0.0282  0.0282  0.0000  0.0000  0.0000 </r>
       </set>
       <set comment="band 7">
        <r>  0.3934  0.0000  0.0033  0.0033  0.0000  0.0000  0.0787  0.0000  0.2361 </r>
       </set>
       <set comment="band 8">
        <r>  0.0526  0.0000  0.2389  0.2389  0.0000  0.0000  0.0022  0.0635  0.0066 </r>
       </set>
       <set comment="band 9">
        <r>  0.0000  0.0000  0.2896  0.2896  0.0000  0.0000  0.0052  0.0000  0.0017 </r>
       </set>
       <set comment="band 10">
        <r>  0.0453  0.0000  0.0084  0.0084  0.0000  0.0000  0.0044  0.5082  0.0131 </r>
       </set>
       <set comment="band 11">
        <r>  0.3148  0.0000  0.0409  0.0409  0.0000  0.0000  0.0404  0.0332  0.1213 </r>
       </set>
       <set comment="band 12">
        <r>  0.0000  0.0000  0.0000  0.0000  0.0433  0.0433  0.0000  0.0000  0.0000 </r>
       </set>
      </set>
      <set comment="kpoint 244">
       <set comment="band 1">
        <r>  0.0408  0.0000  0.0009  0.0009  0.0000  0.0000  0.1983  0.0005  0.5949 </r>
       </set>
       <set comment="band 2">
        <r>  0.0000  0.0000  0.0010  0.0010  0.0000  0.0000  0.0001  0.9046  0.0003 </r>
       </set>
       <set comment="band 3">
        <r>  0.0000  0.0000  0.0002  0.0002  0.0000  0.0000  0.7451  0.0000  0.2484 </r>
       </set>
       <set comment="band 4">
        <r>  0.0000  0.0217  0.0000  0.0000  0.4778  0.4778  0.0000  0.0000  0.0000 </r>
       </set>
       <set comment="band 5">
        <r>  0.0000  0.0000  0.0000  0.0000  0.4985  0.4985  0.0000  0.0000  0.0000 </r>
       </set>
       <set comment="band 6">
        <r>  0.0000  0.5565  0.0000  0.0000  0.0221  0.0221  0.0000  0.0000  0.0000 </r>
       </set>
       <set comment="band 7">
        <r>  0.3951  0.0000  0.0024  0.0024  0.0000  0.0000  0.0790  0.0000  0.2370 </r>
       </set>
       <set comment="band 8">
        <r>  0.0420  0.0000  0.2477  0.2477  0.0000  0.0000  0.0019  0.0541  0.0056 </r>
       </set>
       <set comment="band 9">
        <r>  0.0000  0.0000  0.2901  0.2901  0.0000  0.0000  0.0038  0.0000  0.0013 </r>
       </set>
       <set comment="band 10">
        <r>  0.0302  0.0000  0.0097  0.0097  0.0000  0.0000  0.0029  0.5302  0.0086 </r>
       </set>
       <set comment="band 11">
        <r>  0.3391  0.0000  0.0317  0.0317  0.0000  0.0000  0.0423  0.0213  0.1268 </r>
       </set>
       <set comment="band 12">
        <r>  0.0000  0.0000  0.0000  0.0000  0.0349  0.0349  0.0000  0.0000  0.0000 </r>
       </set>
      </set>
      <set comment="kpoint 245">
       <set comment="band 1">
        <r>  0.0415  0.0000  0.0006  0.0006  0.0000  0.0000  0.1982  0.0002  0.5946 </r>
       </set>
       <set comment="band 2">
        <r>  0.0000  0.0000  0.0007  0.0007  0.0000  0.0000  0.0000  0.9055  0.0001 </r>
       </set>
       <set comment="band 3">
        <r>  0.0000  0.0000  0.0002  0.0002  0.0000  0.0000  0.7455  0.0000  0.2485 </r>
       </set>
       <set comment="band 4">
        <r>  0.0000  0.0161  0.0000  0.0000  0.4833  0.4833  0.0000  0.0000  0.0000 </r>
       </set>
       <set comment="band 5">
        <r>  0.0000  0.0000  0.0000  0.0000  0.4986  0.4986  0.0000  0.0000  0.0000 </r>
       </set>
       <set comment="band 6">
        <r>  0.0000  0.5628  0.0000  0.0000  0.0162  0.0162  0.0000  0.0000  0.0000 </r>
       </set>
       <set comment="band 7">
        <r>  0.3964  0.0000  0.0016  0.0016  0.0000  0.0000  0.0793  0.0000  0.2379 </r>
       </set>
       <set comment="band 8">
        <r>  0.0318  0.0000  0.2569  0.2569  0.0000  0.0000  0.0015  0.0436  0.0044 </r>
       </set>
       <set comment="band 9">
        <r>  0.0000  0.0000  0.2905  0.2905  0.0000  0.0000  0.0027  0.0000  0.0009 </r>
       </set>
       <set comment="band 10">
        <r>  0.0176  0.0000  0.0101  0.0101  0.0000  0.0000  0.0016  0.5509  0.0049 </r>
       </set>
       <set comment="band 11">
        <r>  0.3610  0.0000  0.0229  0.0229  0.0000  0.0000  0.0439  0.0118  0.1316 </r>
       </set>
       <set comment="band 12">
        <r>  0.0000  0.0000  0.0000  0.0000  0.0265  0.0265  0.0000  0.0000  0.0000 </r>
       </set>
      </set>
      <set comment="kpoint 246">
       <set comment="band 1">
        <r>  0.0420  0.0000  0.0004  0.0004  0.0000  0.0000  0.1981  0.0001  0.5943 </r>
       </set>
       <set comment="band 2">
        <r>  0.0000  0.0000  0.0004  0.0004  0.0000  0.0000  0.0000  0.9063  0.0001 </r>
       </set>
       <set comment="band 3">
        <r>  0.0000  0.0000  0.0001  0.0001  0.0000  0.0000  0.7459  0.0000  0.2486 </r>
       </set>
       <set comment="band 4">
        <r>  0.0000  0.0109  0.0000  0.0000  0.4883  0.4883  0.0000  0.0000  0.0000 </r>
       </set>
       <set comment="band 5">
        <r>  0.0000  0.0000  0.0000  0.0000  0.4986  0.4986  0.0000  0.0000  0.0000 </r>
       </set>
       <set comment="band 6">
        <r>  0.0000  0.5686  0.0000  0.0000  0.0109  0.0109  0.0000  0.0000  0.0000 </r>
       </set>
       <set comment="band 7">
        <r>  0.3974  0.0000  0.0010  0.0010  0.0000  0.0000  0.0795  0.0000  0.2385 </r>
       </set>
       <set comment="band 8">
        <r>  0.0221  0.0000  0.2665  0.2665  0.0000  0.0000  0.0011  0.0322  0.0032 </r>
       </set>
       <set comment="band 9">
        <r>  0.0000  0.0000  0.2908  0.2908  0.0000  0.0000  0.0017  0.0000  0.0006 </r>
       </set>
       <set comment="band 10">
        <r>  0.0084  0.0000  0.0090  0.0090  0.0000  0.0000  0.0008  0.5692  0.0023 </r>
       </set>
       <set comment="band 11">
        <r>  0.3790  0.0000  0.0150  0.0150  0.0000  0.0000  0.0451  0.0054  0.1354 </r>
       </set>
       <set comment="band 12">
        <r>  0.0000  0.0000  0.0000  0.0000  0.0184  0.0184  0.0000  0.0000  0.0000 </r>
       </set>
      </set>
      <set comment="kpoint 247">
       <set comment="band 1">
        <r>  0.0425  0.0000  0.0002  0.0002  0.0000  0.0000  0.1980  0.0000  0.5941 </r>
       </set>
       <set comment="band 2">
        <r>  0.0000  0.0000  0.0002  0.0002  0.0000  0.0000  0.0000  0.9068  0.0000 </r>
       </set>
       <set comment="band 3">
        <r>  0.0000  0.0000  0.0001  0.0001  0.0000  0.0000  0.7461  0.0000  0.2487 </r>
       </set>
       <set comment="band 4">
        <r>  0.0000  0.0064  0.0000  0.0000  0.4926  0.4926  0.0000  0.0000  0.0000 </r>
       </set>
       <set comment="band 5">
        <r>  0.0000  0.0000  0.0000  0.0000  0.4986  0.4986  0.0000  0.0000  0.0000 </r>
       </set>
       <set comment="band 6">
        <r>  0.0000  0.5735  0.0000  0.0000  0.0064  0.0064  0.0000  0.0000  0.0000 </r>
       </set>
       <set comment="band 7">
        <r>  0.3982  0.0000  0.0006  0.0006  0.0000  0.0000  0.0797  0.0000  0.2391 </r>
       </set>
       <set comment="band 8">
        <r>  0.0134  0.0000  0.2757  0.2757  0.0000  0.0000  0.0007  0.0206  0.0020 </r>
       </set>
       <set comment="band 9">
        <r>  0.0000  0.0000  0.2911  0.2911  0.0000  0.0000  0.0010  0.0000  0.0003 </r>
       </set>
       <set comment="band 10">
        <r>  0.0030  0.0000  0.0066  0.0066  0.0000  0.0000  0.0003  0.5848  0.0008 </r>
       </set>
       <set comment="band 11">
        <r>  0.3925  0.0000  0.0085  0.0085  0.0000  0.0000  0.0460  0.0019  0.1381 </r>
       </set>
       <set comment="band 12">
        <r>  0.0000  0.0000  0.0000  0.0000  0.0111  0.0111  0.0000  0.0000  0.0000 </r>
       </set>
      </set>
      <set comment="kpoint 248">
       <set comment="band 1">
        <r>  0.0428  0.0000  0.0001  0.0001  0.0000  0.0000  0.1980  0.0000  0.5939 </r>
       </set>
       <set comment="band 2">
        <r>  0.0000  0.0000  0.0001  0.0001  0.0000  0.0000  0.0000  0.9071  0.0000 </r>
       </set>
       <set comment="band 3">
        <r>  0.0000  0.0000  0.0000  0.0000  0.0000  0.0000  0.7463  0.0000  0.2488 </r>
       </set>
       <set comment="band 4">
        <r>  0.0000  0.0029  0.0000  0.0000  0.4959  0.4959  0.0000  0.0000  0.0000 </r>
       </set>
       <set comment="band 5">
        <r>  0.0000  0.0000  0.0000  0.0000  0.4987  0.4987  0.0000  0.0000  0.0000 </r>
       </set>
       <set comment="band 6">
        <r>  0.0000  0.5773  0.0000  0.0000  0.0029  0.0029  0.0000  0.0000  0.0000 </r>
       </set>
       <set comment="band 7">
        <r>  0.3987  0.0000  0.0003  0.0003  0.0000  0.0000  0.0798  0.0000  0.2395 </r>
       </set>
       <set comment="band 8">
        <r>  0.0064  0.0000  0.2838  0.2838  0.0000  0.0000  0.0003  0.0101  0.0010 </r>
       </set>
       <set comment="band 9">
        <r>  0.0000  0.0000  0.2912  0.2912  0.0000  0.0000  0.0004  0.0000  0.0001 </r>
       </set>
       <set comment="band 10">
        <r>  0.0007  0.0000  0.0036  0.0036  0.0000  0.0000  0.0001  0.5970  0.0002 </r>
       </set>
       <set comment="band 11">
        <r>  0.4015  0.0000  0.0038  0.0038  0.0000  0.0000  0.0466  0.0004  0.1397 </r>
       </set>
       <set comment="band 12">
        <r>  0.0000  0.0000  0.0000  0.0000  0.0052  0.0052  0.0000  0.0000  0.0000 </r>
       </set>
      </set>
      <set comment="kpoint 249">
       <set comment="band 1">
        <r>  0.0430  0.0000  0.0000  0.0000  0.0000  0.0000  0.1979  0.0000  0.5937 </r>
       </set>
       <set comment="band 2">
        <r>  0.0000  0.0000  0.0000  0.0000  0.0000  0.0000  0.0000  0.9073  0.0000 </r>
       </set>
       <set comment="band 3">
        <r>  0.0000  0.0000  0.0000  0.0000  0.0000  0.0000  0.7465  0.0000  0.2488 </r>
       </set>
       <set comment="band 4">
        <r>  0.0000  0.0008  0.0000  0.0000  0.4980  0.4980  0.0000  0.0000  0.0000 </r>
       </set>
       <set comment="band 5">
        <r>  0.0000  0.0000  0.0000  0.0000  0.4987  0.4987  0.0000  0.0000  0.0000 </r>
       </set>
       <set comment="band 6">
        <r>  0.0000  0.5797  0.0000  0.0000  0.0007  0.0007  0.0000  0.0000  0.0000 </r>
       </set>
       <set comment="band 7">
        <r>  0.3990  0.0000  0.0001  0.0001  0.0000  0.0000  0.0799  0.0000  0.2397 </r>
       </set>
       <set comment="band 8">
        <r>  0.0017  0.0000  0.2894  0.2894  0.0000  0.0000  0.0001  0.0027  0.0003 </r>
       </set>
       <set comment="band 9">
        <r>  0.0000  0.0000  0.2913  0.2913  0.0000  0.0000  0.0001  0.0000  0.0000 </r>
       </set>
       <set comment="band 10">
        <r>  0.0000  0.0000  0.0010  0.0010  0.0000  0.0000  0.0000  0.6050  0.0000 </r>
       </set>
       <set comment="band 11">
        <r>  0.4066  0.0000  0.0009  0.0009  0.0000  0.0000  0.0469  0.0000  0.1406 </r>
       </set>
       <set comment="band 12">
        <r>  0.0000  0.0000  0.0000  0.0000  0.0014  0.0014  0.0000  0.0000  0.0000 </r>
       </set>
      </set>
      <set comment="kpoint 250">
       <set comment="band 1">
        <r>  0.0431  0.0000  0.0000  0.0000  0.0000  0.0000  0.1979  0.0000  0.5937 </r>
       </set>
       <set comment="band 2">
        <r>  0.0000  0.0000  0.0000  0.0000  0.0000  0.0000  0.0000  0.9074  0.0000 </r>
       </set>
       <set comment="band 3">
        <r>  0.0000  0.0000  0.0000  0.0000  0.0000  0.0000  0.7465  0.0000  0.2488 </r>
       </set>
       <set comment="band 4">
        <r>  0.0000  0.0000  0.0000  0.0000  0.4987  0.4987  0.0000  0.0000  0.0000 </r>
       </set>
       <set comment="band 5">
        <r>  0.0000  0.0000  0.0000  0.0000  0.4987  0.4987  0.0000  0.0000  0.0000 </r>
       </set>
       <set comment="band 6">
        <r>  0.0000  0.5805  0.0000  0.0000  0.0000  0.0000  0.0000  0.0000  0.0000 </r>
       </set>
       <set comment="band 7">
        <r>  0.3991  0.0000  0.0000  0.0000  0.0000  0.0000  0.0799  0.0000  0.2398 </r>
       </set>
       <set comment="band 8">
        <r>  0.0000  0.0000  0.2914  0.2914  0.0000  0.0000  0.0000  0.0000  0.0000 </r>
       </set>
       <set comment="band 9">
        <r>  0.0000  0.0000  0.2914  0.2914  0.0000  0.0000  0.0000  0.0000  0.0000 </r>
       </set>
       <set comment="band 10">
        <r>  0.0000  0.0000  0.0000  0.0000  0.0000  0.0000  0.0000  0.6078  0.0000 </r>
       </set>
       <set comment="band 11">
        <r>  0.4082  0.0000  0.0000  0.0000  0.0000  0.0000  0.0469  0.0000  0.1408 </r>
       </set>
       <set comment="band 12">
        <r>  0.0000  0.0000  0.0000  0.0000  0.0000  0.0000  0.0000  0.0000  0.0000 </r>
       </set>
      </set>
     </set>
    </set>
   </array>
  </projected>
 </calculation>
 <structure name="finalpos" >
  <crystal>
   <varray name="basis" >
    <v>       0.00000000       1.81841034       1.81841034 </v>
    <v>       1.81841034       0.00000000       1.81841034 </v>
    <v>       1.81841034       1.81841034       0.00000000 </v>
   </varray>
   <i name="volume">     12.02556998 </i>
   <varray name="rec_basis" >
    <v>      -0.27496544       0.27496544       0.27496544 </v>
    <v>       0.27496544      -0.27496544       0.27496544 </v>
    <v>       0.27496544       0.27496544      -0.27496544 </v>
   </varray>
  </crystal>
  <varray name="positions" >
   <v>       0.00000000       0.00000000       0.00000000 </v>
  </varray>
 </structure>
</modeling>
