-------------------Job starts at-------------------
11:18:23 Feb-15-2025
---------------------------------------------------

Lmod is automatically replacing "gcc/12.3" with "intel/2023.2.1".


Due to MODULEPATH changes, the following have been reloaded:
  1) flexiblas/3.3.1     2) openmpi/4.1.5

Lmod Warning:  Please use the version of VASP compiled with Intel MPI, as the
version with openmpi-4.1.5 exhibits a memory leak, resulting in continuously
increasing memory usage at runtime.

   Veuillez utiliser la version de VASP compilée avec Intel MPI, car la
version avec openmpi-4.1.5 présente une fuite de mémoire, entraînant une
augmentation continue de l'utilisation de la mémoire pendant l'exécution. 
While processing the following module(s):
    Module fullname  Module Filename
    ---------------  ---------------
    vasp/6.4.2       /cvmfs/soft.computecanada.ca/easybuild/modules/2023/x86-64-v3/MPI/intel2023/openmpi4/vasp/6.4.2.lua

 running    4 mpi-ranks, on    1 nodes
 distrk:  each k-point on    4 cores,    1 groups
 distr:  one band on    1 cores,    4 groups
 vasp.6.4.2 20Jul23 (build Oct 16 2024 22:45:58) complex                        
  
 POSCAR found type information on POSCAR Cu
 POSCAR found :  1 types and       1 ions
 Reading from existing POTCAR
 scaLAPACK will be used
 Reading from existing POTCAR
 LDA part: xc-table for Pade appr. of Perdew
 POSCAR found type information on POSCAR Cu
 POSCAR found :  1 types and       1 ions
 WARNING: stress and forces are not correct
 POSCAR, INCAR and KPOINTS ok, starting setup
 FFT: planning ... GRIDC
 FFT: planning ... GRID_SOFT
 FFT: planning ... GRID
 WAVECAR not read
 charge-density read from file: Cu                                      
 WARNING: random wavefunctions but no delay for mixing, default for NELMDL
 entering main loop
       N       E                     dE             d eps       ncg     rms          rms(c)
DAV:   1     0.466286058136E+02    0.46629E+02   -0.54469E+03  6648   0.155E+03
DAV:   2    -0.910189472448E+00   -0.47539E+02   -0.43411E+02  6164   0.207E+02
DAV:   3    -0.233736959080E+01   -0.14272E+01   -0.14197E+01  7124   0.410E+01
DAV:   4    -0.234697281646E+01   -0.96032E-02   -0.96020E-02  6984   0.298E+00
DAV:   5    -0.234707196860E+01   -0.99152E-04   -0.99151E-04  7208   0.307E-01
DAV:   6    -0.234707367690E+01   -0.17083E-05   -0.17073E-05  7076   0.362E-02
DAV:   7    -0.234707371436E+01   -0.37459E-07   -0.37646E-07  7328   0.546E-03
DAV:   8    -0.234707371413E+01    0.23147E-09   -0.82856E-09  7152   0.740E-04
DAV:   9    -0.234707371497E+01   -0.83946E-09   -0.19729E-10  6668   0.117E-04
DAV:  10    -0.234707371406E+01    0.90267E-09   -0.66441E-12  4976   0.258E-05
DAV:  11    -0.234707371396E+01    0.98680E-10   -0.14916E-12  4564   0.128E-05
   1 F= -.23470737E+01 E0= -.23470362E+01  d E =-.750318E-04
--------------------Job ends at--------------------
11:18:49 Feb-15-2025
---------------------------------------------------
