Cu FCC                                  
           1
     0.000000    1.818410    1.818410
     1.818410    0.000000    1.818410
     1.818410    1.818410    0.000000
   Cu
     1
Direct configuration=     1
   0.00000000  0.00000000  0.00000000
