   1   1   0   0
  0.1185850E+02  0.2559656E-09  0.2559656E-09  0.2559656E-09  0.5000000E-15
  1.000000000000000E-004
  CAR 
 Cu FCC                                  
     51.64903770     -4.39677847  301      7.25648893      1.00000000
     -4.397  0.0000E+00  0.0000E+00
     -4.210  0.0000E+00  0.0000E+00
     -4.023  0.0000E+00  0.0000E+00
     -3.836  0.0000E+00  0.0000E+00
     -3.650  0.0000E+00  0.0000E+00
     -3.463  0.0000E+00  0.0000E+00
     -3.276  0.0000E+00  0.0000E+00
     -3.089  0.0000E+00  0.0000E+00
     -2.902  0.0000E+00  0.0000E+00
     -2.715  0.0000E+00  0.0000E+00
     -2.529  0.0000E+00  0.0000E+00
     -2.342  0.0000E+00  0.0000E+00
     -2.155  0.0000E+00  0.0000E+00
     -1.968  0.1119E-11  0.2091E-12
     -1.781  0.1070E-03  0.1999E-04
     -1.594  0.5065E-09  0.2000E-04
     -1.408  0.8888E-03  0.1860E-03
     -1.221  0.6099E-03  0.3000E-03
     -1.034  0.2227E-11  0.3000E-03
     -0.847  0.1282E-02  0.5396E-03
     -0.660  0.1868E-07  0.5400E-03
     -0.474  0.2830E-02  0.1069E-02
     -0.287  0.5956E-03  0.1180E-02
     -0.100  0.3845E-07  0.1180E-02
      0.087  0.6423E-03  0.1300E-02
      0.274  0.5508E-03  0.1403E-02
      0.461  0.4580E-02  0.2259E-02
      0.647  0.8315E-12  0.2260E-02
      0.834  0.2558E-02  0.2738E-02
      1.021  0.5970E-03  0.2852E-02
      1.208  0.2829E-02  0.3380E-02
      1.395  0.3892E-14  0.3380E-02
      1.581  0.1250E-02  0.3614E-02
      1.768  0.6411E-02  0.4811E-02
      1.955  0.1974E-02  0.5180E-02
      2.142  0.5628E-02  0.6231E-02
      2.329  0.2423E-02  0.6686E-02
      2.516  0.5740E-02  0.7759E-02
      2.702  0.7045E-02  0.9075E-02
      2.889  0.1405E-01  0.1170E-01
      3.076  0.1881E-01  0.1521E-01
      3.263  0.9860E-02  0.1706E-01
      3.450  0.3464E-01  0.2353E-01
      3.636  0.1814E-01  0.2692E-01
      3.823  0.2169E-01  0.3098E-01
      4.010  0.2028E-01  0.3476E-01
      4.197  0.3140E-01  0.4063E-01
      4.384  0.4330E-01  0.4872E-01
      4.571  0.4209E-01  0.5659E-01
      4.757  0.3138E-01  0.6245E-01
      4.944  0.3152E-01  0.6834E-01
      5.131  0.3090E-01  0.7411E-01
      5.318  0.4602E-01  0.8271E-01
      5.505  0.2622E-01  0.8761E-01
      5.691  0.4297E-01  0.9564E-01
      5.878  0.4063E-01  0.1032E+00
      6.065  0.1539E-01  0.1061E+00
      6.252  0.3013E-02  0.1067E+00
      6.439  0.3528E-02  0.1073E+00
      6.626  0.6446E-04  0.1073E+00
      6.812  0.2736E-03  0.1074E+00
      6.999  0.3036E-02  0.1080E+00
      7.186  0.9278E-02  0.1097E+00
      7.373  0.3456E-02  0.1103E+00
      7.560  0.5139E-02  0.1113E+00
      7.746  0.2350E-07  0.1113E+00
      7.933  0.2569E-02  0.1118E+00
      8.120  0.2568E-02  0.1123E+00
      8.307  0.2781E-16  0.1123E+00
      8.494  0.2257E-02  0.1127E+00
      8.681  0.1834E-02  0.1130E+00
      8.867  0.6479E-02  0.1142E+00
      9.054  0.1432E-02  0.1145E+00
      9.241  0.5020E-02  0.1154E+00
      9.428  0.4746E-09  0.1154E+00
      9.615  0.2569E-02  0.1159E+00
      9.801  0.4462E-03  0.1160E+00
      9.988  0.5907E-02  0.1171E+00
     10.175  0.7048E-04  0.1171E+00
     10.362  0.5138E-02  0.1181E+00
     10.549  0.0000E+00  0.1181E+00
     10.736  0.4815E-07  0.1181E+00
     10.922  0.1285E-02  0.1183E+00
     11.109  0.2944E-02  0.1189E+00
     11.296  0.1631E-03  0.1189E+00
     11.483  0.4448E-02  0.1197E+00
     11.670  0.5837E-03  0.1198E+00
     11.857  0.2570E-02  0.1203E+00
     12.043  0.2650E-02  0.1208E+00
     12.230  0.6333E-02  0.1220E+00
     12.417  0.2574E-02  0.1225E+00
     12.604  0.5134E-02  0.1234E+00
     12.791  0.2573E-02  0.1239E+00
     12.977  0.5135E-02  0.1249E+00
     13.164  0.1093E-05  0.1249E+00
     13.351  0.8553E-03  0.1250E+00
     13.538  0.7192E-03  0.1252E+00
     13.725  0.4419E-02  0.1260E+00
     13.912  0.4523E-02  0.1268E+00
     14.098  0.6156E-03  0.1270E+00
     14.285  0.5696E-07  0.1270E+00
     14.472  0.4182E-03  0.1270E+00
     14.659  0.3619E-02  0.1277E+00
     14.846  0.2707E-02  0.1282E+00
     15.032  0.3054E-02  0.1288E+00
     15.219  0.5874E-02  0.1299E+00
     15.406  0.2828E-02  0.1304E+00
     15.593  0.1005E-01  0.1323E+00
     15.780  0.2148E-04  0.1323E+00
     15.967  0.1028E-05  0.1323E+00
     16.153  0.1085E-01  0.1343E+00
     16.340  0.1993E-02  0.1347E+00
     16.527  0.1154E-02  0.1349E+00
     16.714  0.2745E-02  0.1354E+00
     16.901  0.3809E-02  0.1361E+00
     17.087  0.2569E-02  0.1366E+00
     17.274  0.4760E-02  0.1375E+00
     17.461  0.3522E-02  0.1382E+00
     17.648  0.9227E-03  0.1383E+00
     17.835  0.2569E-02  0.1388E+00
     18.022  0.6258E-04  0.1388E+00
     18.208  0.1339E-01  0.1413E+00
     18.395  0.5816E-02  0.1424E+00
     18.582  0.8555E-06  0.1424E+00
     18.769  0.3827E-02  0.1431E+00
     18.956  0.2595E-02  0.1436E+00
     19.142  0.2264E-02  0.1440E+00
     19.329  0.7937E-02  0.1455E+00
     19.516  0.7802E-02  0.1470E+00
     19.703  0.1267E-02  0.1472E+00
     19.890  0.2175E-02  0.1476E+00
     20.077  0.3945E-03  0.1477E+00
     20.263  0.4056E-02  0.1485E+00
     20.450  0.1064E-01  0.1504E+00
     20.637  0.2613E-02  0.1509E+00
     20.824  0.4818E-02  0.1518E+00
     21.011  0.8884E-02  0.1535E+00
     21.197  0.5592E-02  0.1545E+00
     21.384  0.7371E-03  0.1547E+00
     21.571  0.1835E-02  0.1550E+00
     21.758  0.3851E-02  0.1557E+00
     21.945  0.0000E+00  0.1557E+00
     22.132  0.1272E-02  0.1560E+00
     22.318  0.6209E-02  0.1571E+00
     22.505  0.1393E-01  0.1597E+00
     22.692  0.2589E-02  0.1602E+00
     22.879  0.6285E-03  0.1603E+00
     23.066  0.3849E-02  0.1611E+00
     23.252  0.5062E-02  0.1620E+00
     23.439  0.4924E-02  0.1629E+00
     23.626  0.2860E-02  0.1635E+00
     23.813  0.0000E+00  0.1635E+00
     24.000  0.3197E-05  0.1635E+00
     24.187  0.5135E-02  0.1644E+00
     24.373  0.2564E-02  0.1649E+00
     24.560  0.6656E-02  0.1661E+00
     24.747  0.6631E-02  0.1674E+00
     24.934  0.3081E-02  0.1680E+00
     25.121  0.2573E-02  0.1684E+00
     25.308  0.1285E-02  0.1687E+00
     25.494  0.7594E-03  0.1688E+00
     25.681  0.4599E-02  0.1697E+00
     25.868  0.8129E-02  0.1712E+00
     26.055  0.1707E-11  0.1712E+00
     26.242  0.3952E-02  0.1719E+00
     26.428  0.3655E-02  0.1726E+00
     26.615  0.2525E-02  0.1731E+00
     26.802  0.7552E-02  0.1745E+00
     26.989  0.5255E-02  0.1755E+00
     27.176  0.7191E-02  0.1768E+00
     27.363  0.2455E-02  0.1773E+00
     27.549  0.3129E-02  0.1779E+00
     27.736  0.7812E-02  0.1793E+00
     27.923  0.5709E-02  0.1804E+00
     28.110  0.2667E-02  0.1809E+00
     28.297  0.2828E-02  0.1814E+00
     28.483  0.5864E-02  0.1825E+00
     28.670  0.4360E-02  0.1833E+00
     28.857  0.4872E-02  0.1843E+00
     29.044  0.7739E-02  0.1857E+00
     29.231  0.4386E-02  0.1865E+00
     29.418  0.5462E-02  0.1875E+00
     29.604  0.6017E-02  0.1887E+00
     29.791  0.5103E-02  0.1896E+00
     29.978  0.9779E-02  0.1914E+00
     30.165  0.5963E-02  0.1926E+00
     30.352  0.9848E-02  0.1944E+00
     30.538  0.5244E-02  0.1954E+00
     30.725  0.5221E-02  0.1964E+00
     30.912  0.9454E-02  0.1981E+00
     31.099  0.1631E-02  0.1984E+00
     31.286  0.3507E-02  0.1991E+00
     31.473  0.1669E-02  0.1994E+00
     31.659  0.2592E-02  0.1999E+00
     31.846  0.1799E-02  0.2002E+00
     32.033  0.2060E-02  0.2006E+00
     32.220  0.3365E-02  0.2012E+00
     32.407  0.3974E-03  0.2013E+00
     32.593  0.1283E-02  0.2015E+00
     32.780  0.4603E-03  0.2016E+00
     32.967  0.6386E-02  0.2028E+00
     33.154  0.3056E-03  0.2029E+00
     33.341  0.2264E-02  0.2033E+00
     33.528  0.6393E-02  0.2045E+00
     33.714  0.2419E-02  0.2049E+00
     33.901  0.1431E-01  0.2076E+00
     34.088  0.6044E-02  0.2087E+00
     34.275  0.9371E-02  0.2105E+00
     34.462  0.6423E-02  0.2117E+00
     34.648  0.7800E-02  0.2132E+00
     34.835  0.5127E-02  0.2141E+00
     35.022  0.3937E-02  0.2149E+00
     35.209  0.1076E-01  0.2169E+00
     35.396  0.3854E-02  0.2176E+00
     35.583  0.2214E-02  0.2180E+00
     35.769  0.2924E-02  0.2185E+00
     35.956  0.1623E-14  0.2185E+00
     36.143  0.2478E-02  0.2190E+00
     36.330  0.1961E-02  0.2194E+00
     36.517  0.4982E-02  0.2203E+00
     36.703  0.5113E-02  0.2213E+00
     36.890  0.5531E-02  0.2223E+00
     37.077  0.5883E-02  0.2234E+00
     37.264  0.3164E-02  0.2240E+00
     37.451  0.2276E-02  0.2244E+00
     37.638  0.4902E-02  0.2253E+00
     37.824  0.3097E-02  0.2259E+00
     38.011  0.1000E-05  0.2259E+00
     38.198  0.2568E-02  0.2264E+00
     38.385  0.1586E-02  0.2267E+00
     38.572  0.1173E-01  0.2289E+00
     38.758  0.7638E-02  0.2303E+00
     38.945  0.8821E-03  0.2305E+00
     39.132  0.4744E-02  0.2313E+00
     39.319  0.3949E-03  0.2314E+00
     39.506  0.3257E-02  0.2320E+00
     39.693  0.4451E-02  0.2329E+00
     39.879  0.7882E-03  0.2330E+00
     40.066  0.1782E-02  0.2333E+00
     40.253  0.5138E-02  0.2343E+00
     40.440  0.0000E+00  0.2343E+00
     40.627  0.2562E-12  0.2343E+00
     40.814  0.5089E-02  0.2353E+00
     41.000  0.3605E-02  0.2359E+00
     41.187  0.1584E-02  0.2362E+00
     41.374  0.5109E-02  0.2372E+00
     41.561  0.2936E-04  0.2372E+00
     41.748  0.7253E-05  0.2372E+00
     41.934  0.6351E-03  0.2373E+00
     42.121  0.0000E+00  0.2373E+00
     42.308  0.0000E+00  0.2373E+00
     42.495  0.0000E+00  0.2373E+00
     42.682  0.7047E-05  0.2373E+00
     42.869  0.2878E-02  0.2378E+00
     43.055  0.2254E-02  0.2383E+00
     43.242  0.0000E+00  0.2383E+00
     43.429  0.0000E+00  0.2383E+00
     43.616  0.0000E+00  0.2383E+00
     43.803  0.0000E+00  0.2383E+00
     43.989  0.0000E+00  0.2383E+00
     44.176  0.0000E+00  0.2383E+00
     44.363  0.0000E+00  0.2383E+00
     44.550  0.1094E-04  0.2383E+00
     44.737  0.3843E-02  0.2390E+00
     44.924  0.1284E-02  0.2392E+00
     45.110  0.0000E+00  0.2392E+00
     45.297  0.0000E+00  0.2392E+00
     45.484  0.0000E+00  0.2392E+00
     45.671  0.0000E+00  0.2392E+00
     45.858  0.0000E+00  0.2392E+00
     46.044  0.3565E-03  0.2393E+00
     46.231  0.2858E-03  0.2393E+00
     46.418  0.0000E+00  0.2393E+00
     46.605  0.0000E+00  0.2393E+00
     46.792  0.3195E-11  0.2393E+00
     46.979  0.2564E-02  0.2398E+00
     47.165  0.0000E+00  0.2398E+00
     47.352  0.0000E+00  0.2398E+00
     47.539  0.0000E+00  0.2398E+00
     47.726  0.0000E+00  0.2398E+00
     47.913  0.0000E+00  0.2398E+00
     48.099  0.0000E+00  0.2398E+00
     48.286  0.0000E+00  0.2398E+00
     48.473  0.4332E-04  0.2398E+00
     48.660  0.5990E-03  0.2399E+00
     48.847  0.0000E+00  0.2399E+00
     49.034  0.2188E-06  0.2399E+00
     49.220  0.3209E-03  0.2400E+00
     49.407  0.0000E+00  0.2400E+00
     49.594  0.0000E+00  0.2400E+00
     49.781  0.0000E+00  0.2400E+00
     49.968  0.0000E+00  0.2400E+00
     50.154  0.0000E+00  0.2400E+00
     50.341  0.0000E+00  0.2400E+00
     50.528  0.0000E+00  0.2400E+00
     50.715  0.0000E+00  0.2400E+00
     50.902  0.0000E+00  0.2400E+00
     51.089  0.0000E+00  0.2400E+00
     51.275  0.0000E+00  0.2400E+00
     51.462  0.0000E+00  0.2400E+00
     51.649  0.0000E+00  0.2400E+00
