    1    1  100    1
  0.1185850E+02  0.2559656E-09  0.2559656E-09  0.2559656E-09  0.5000000E-15
  1.000000000000000E-004
  CAR 
 Cu FCC                                  
     11     47     12
 
  0.0000000E+00  0.0000000E+00  0.0000000E+00  0.1000000E-02
      1         -1.849241   1.000000
      2          4.396517   1.000000
      3          4.396518   1.000000
      4          4.396518   1.000000
      5          5.201837   1.000000
      6          5.201837   1.000000
      7         29.819157   0.000000
      8         32.325988   0.000000
      9         32.325998   0.000000
     10         32.325998   0.000000
     11         34.804829   0.000000
     12         34.804831   0.000000
 
  0.1000000E+00  0.0000000E+00  0.0000000E+00  0.8000000E-02
      1         -1.491423   1.000000
      2          4.325287   1.000000
      3          4.459059   1.000000
      4          4.459059   1.000000
      5          5.179804   1.000000
      6          5.179804   1.000000
      7         27.248793   0.000000
      8         30.519632   0.000000
      9         31.431088   0.000000
     10         31.431095   0.000000
     11         36.190748   0.000000
     12         36.190749   0.000000
 
  0.2000000E+00  0.0000000E+00  0.0000000E+00  0.8000000E-02
      1         -0.462725   1.000000
      2          4.182201   1.000000
      3          4.553203   1.000000
      4          4.553204   1.000000
      5          5.200381   1.000000
      6          5.200382   1.000000
      7         22.132224   0.000000
      8         30.030166   0.000000
      9         30.329798   0.000000
     10         30.329804   0.000000
     11         36.639694   0.000000
     12         36.740252   0.000000
 
  0.3000000E+00  0.0000000E+00  0.0000000E+00  0.8000000E-02
      1          1.010960   1.000000
      2          4.231166   1.000000
      3          4.511743   1.000000
      4          4.511743   1.000000
      5          5.402090   1.000000
      6          5.402091   1.000000
      7         17.329661   0.000000
      8         29.279326   0.000000
      9         29.603656   0.000000
     10         29.603661   0.000000
     11         34.447301   0.000000
     12         34.447308   0.000000
 
  0.4000000E+00  0.0000000E+00  0.0000000E+00  0.8000000E-02
      1          2.134630   1.000000
      2          4.411947   1.000000
      3          4.411947   1.000000
      4          5.171875   1.000000
      5          5.647611   1.000000
      6          5.647612   1.000000
      7         13.228248   0.000000
      8         28.588381   0.000000
      9         29.250583   0.000000
     10         29.250586   0.000000
     11         32.793357   0.000000
     12         32.793366   0.000000
 
  0.5000000E+00  0.0000000E+00  0.0000000E+00  0.4000000E-02
      1          2.391757   1.000000
      2          4.367600   1.000000
      3          4.367600   1.000000
      4          5.751726   1.000000
      5          5.751727   1.000000
      6          6.416807   1.000000
      7         11.036521   0.000000
      8         28.319580   0.000000
      9         29.163211   0.000000
     10         29.163213   0.000000
     11         32.191243   0.000000
     12         32.191253   0.000000
 
  0.1000000E+00  0.1000000E+00  0.0000000E+00  0.6000000E-02
      1         -1.372866   1.000000
      2          4.260443   1.000000
      3          4.507645   1.000000
      4          4.507646   1.000000
      5          5.080476   1.000000
      6          5.251882   1.000000
      7         28.527258   0.000000
      8         29.311027   0.000000
      9         29.311032   0.000000
     10         30.746671   0.000000
     11         36.667867   0.000000
     12         37.111536   0.000000
 
  0.2000000E+00  0.1000000E+00  0.0000000E+00  0.2400000E-01
      1         -0.568421   1.000000
      2          4.105415   1.000000
      3          4.609036   1.000000
      4          4.628514   1.000000
      5          5.019977   1.000000
      6          5.311488   1.000000
      7         24.070597   0.000000
      8         27.757324   0.000000
      9         28.604775   0.000000
     10         31.835541   0.000000
     11         33.733176   0.000000
     12         37.130879   0.000000
 
  0.3000000E+00  0.1000000E+00  0.0000000E+00  0.2400000E-01
      1          0.778410   1.000000
      2          4.006317   1.000000
      3          4.509659   1.000000
      4          4.648361   1.000000
      5          5.303874   1.000000
      6          5.477315   1.000000
      7         19.118281   0.000000
      8         26.826588   0.000000
      9         27.912085   0.000000
     10         30.138026   0.000000
     11         35.080490   0.000000
     12         36.830509   0.000000
 
  0.4000000E+00  0.1000000E+00  0.0000000E+00  0.2400000E-01
      1          2.096535   1.000000
      2          4.271728   1.000000
      3          4.397029   1.000000
      4          4.561623   1.000000
      5          5.686046   1.000000
      6          5.966396   1.000000
      7         14.714543   0.000000
      8         26.580304   0.000000
      9         26.978065   0.000000
     10         28.442911   0.000000
     11         35.296062   0.000000
     12         36.106785   0.000000
 
  0.5000000E+00  0.1000000E+00  0.0000000E+00  0.2400000E-01
      1          2.558416   1.000000
      2          4.247565   1.000000
      3          4.485459   1.000000
      4          4.950893   1.000000
      5          5.758817   1.000000
      6          7.268124   0.291687
      7         11.466912   0.000000
      8         25.655477   0.000000
      9         27.096382   0.000000
     10         28.159716   0.000000
     11         34.650938   0.000000
     12         35.067205   0.000000
 
 -0.4000000E+00  0.1000000E+00  0.0000000E+00  0.2400000E-01
      1          2.492384   1.000000
      2          4.284853   1.000000
      3          4.486183   1.000000
      4          4.859425   1.000000
      5          5.620253   1.000000
      6          6.861703   1.000000
      7         12.322492   0.000000
      8         24.769602   0.000000
      9         28.419491   0.000000
     10         28.698485   0.000000
     11         33.781434   0.000000
     12         35.037471   0.000000
 
 -0.3000000E+00  0.1000000E+00  0.0000000E+00  0.2400000E-01
      1          1.736304   1.000000
      2          4.192884   1.000000
      3          4.412657   1.000000
      4          4.571408   1.000000
      5          5.325654   1.000000
      6          5.928416   1.000000
      7         16.110910   0.000000
      8         24.540401   0.000000
      9         29.911630   0.000000
     10         30.513821   0.000000
     11         33.478986   0.000000
     12         34.847351   0.000000
 
 -0.2000000E+00  0.1000000E+00  0.0000000E+00  0.2400000E-01
      1          0.290494   1.000000
      2          4.058417   1.000000
      3          4.541837   1.000000
      4          4.662018   1.000000
      5          5.048413   1.000000
      6          5.499634   1.000000
      7         20.728717   0.000000
      8         24.948907   0.000000
      9         31.608487   0.000000
     10         33.178958   0.000000
     11         33.789482   0.000000
     12         34.135243   0.000000
 
 -0.1000000E+00  0.1000000E+00  0.0000000E+00  0.1200000E-01
      1         -0.908706   1.000000
      2          4.202712   1.000000
      3          4.547330   1.000000
      4          4.556227   1.000000
      5          5.060702   1.000000
      6          5.272307   1.000000
      7         25.489435   0.000000
      8         26.270056   0.000000
      9         31.985389   0.000000
     10         33.655781   0.000000
     11         34.631092   0.000000
     12         35.304501   0.000000
 
  0.2000000E+00  0.2000000E+00  0.0000000E+00  0.6000000E-02
      1         -0.018332   1.000000
      2          3.911077   1.000000
      3          4.817449   1.000000
      4          4.823515   1.000000
      5          4.823516   1.000000
      6          5.383991   1.000000
      7         25.804357   0.000000
      8         25.804361   0.000000
      9         26.818919   0.000000
     10         27.890861   0.000000
     11         30.788392   0.000000
     12         41.795985   0.000000
 
  0.3000000E+00  0.2000000E+00  0.0000000E+00  0.2400000E-01
      1          1.075476   1.000000
      2          3.729499   1.000000
      3          4.574039   1.000000
      4          4.947650   1.000000
      5          5.286047   1.000000
      6          5.519253   1.000000
      7         21.396230   0.000000
      8         24.544825   0.000000
      9         25.751089   0.000000
     10         27.418158   0.000000
     11         31.149507   0.000000
     12         41.286137   0.000000
 
  0.4000000E+00  0.2000000E+00  0.0000000E+00  0.2400000E-01
      1          2.310505   1.000000
      2          3.695889   1.000000
      3          4.361633   1.000000
      4          4.901878   1.000000
      5          5.716139   1.000000
      6          6.236381   1.000000
      7         16.812035   0.000000
      8         23.491359   0.000000
      9         24.066534   0.000000
     10         27.129677   0.000000
     11         34.692493   0.000000
     12         40.147959   0.000000
 
  0.5000000E+00  0.2000000E+00  0.0000000E+00  0.2400000E-01
      1          2.931370   1.000000
      2          3.842197   1.000000
      3          4.378468   1.000000
      4          4.808910   1.000000
      5          5.778023   1.000000
      6          8.050931   0.000000
      7         12.895775   0.000000
      8         21.637164   0.000000
      9         24.445275   0.000000
     10         27.175225   0.000000
     11         38.405933   0.000000
     12         38.506692   0.000000
 
 -0.4000000E+00  0.2000000E+00  0.0000000E+00  0.2400000E-01
      1          3.032647   1.000000
      2          3.940436   1.000000
      3          4.406919   1.000000
      4          4.757009   1.000000
      5          5.621485   1.000000
      6          8.815699   0.000000
      7         11.918945   0.000000
      8         20.401845   0.000000
      9         25.688561   0.000000
     10         27.701264   0.000000
     11         37.425244   0.000000
     12         38.082504   0.000000
 
 -0.3000000E+00  0.2000000E+00  0.0000000E+00  0.2400000E-01
      1          2.708208   1.000000
      2          4.033098   1.000000
      3          4.141366   1.000000
      4          4.783364   1.000000
      5          5.302177   1.000000
      6          7.036791   1.000000
      7         15.446783   0.000000
      8         19.868073   0.000000
      9         27.710119   0.000000
     10         28.811837   0.000000
     11         36.908373   0.000000
     12         36.936630   0.000000
 
 -0.2000000E+00  0.2000000E+00  0.0000000E+00  0.1200000E-01
      1          1.540532   1.000000
      2          3.915667   1.000000
      3          4.382908   1.000000
      4          4.873202   1.000000
      5          4.958915   1.000000
      6          6.048274   1.000000
      7         19.563007   0.000000
      8         20.345948   0.000000
      9         30.359016   0.000000
     10         30.504059   0.000000
     11         35.047088   0.000000
     12         36.928748   0.000000
 
  0.3000000E+00  0.3000000E+00  0.0000000E+00  0.6000000E-02
      1          1.756044   1.000000
      2          3.492455   1.000000
      3          4.938485   1.000000
      4          5.274569   1.000000
      5          5.274569   1.000000
      6          5.549392   1.000000
      7         22.731956   0.000000
      8         22.935018   0.000000
      9         22.935022   0.000000
     10         25.632711   0.000000
     11         28.305004   0.000000
     12         46.041518   0.000000
 
  0.4000000E+00  0.3000000E+00  0.0000000E+00  0.2400000E-01
      1          2.474319   1.000000
      2          3.359749   1.000000
      3          4.913745   1.000000
      4          5.333632   1.000000
      5          5.721438   1.000000
      6          6.328767   1.000000
      7         19.364212   0.000000
      8         20.162352   0.000000
      9         22.140758   0.000000
     10         26.187984   0.000000
     11         29.782574   0.000000
     12         44.605738   0.000000
 
  0.5000000E+00  0.3000000E+00  0.0000000E+00  0.2400000E-01
      1          2.966314   1.000000
      2          3.390815   1.000000
      3          4.683862   1.000000
      4          5.242773   1.000000
      5          5.804847   1.000000
      6          8.469015   0.000000
      7         15.280000   0.000000
      8         18.099758   0.000000
      9         22.273141   0.000000
     10         26.389289   0.000000
     11         33.754590   0.000000
     12         42.740618   0.000000
 
 -0.4000000E+00  0.3000000E+00  0.0000000E+00  0.2400000E-01
      1          3.293134   1.000000
      2          3.529848   1.000000
      3          4.401794   1.000000
      4          5.133319   1.000000
      5          5.665420   1.000000
      6         11.065975   0.000000
      7         12.082396   0.000000
      8         16.712876   0.000000
      9         23.336526   0.000000
     10         26.789530   0.000000
     11         38.581012   0.000000
     12         41.325692   0.000000
 
 -0.3000000E+00  0.3000000E+00  0.0000000E+00  0.1200000E-01
      1          3.365698   1.000000
      2          3.782040   1.000000
      3          4.065381   1.000000
      4          5.003617   1.000000
      5          5.422117   1.000000
      6          8.887649   0.000000
      7         14.633413   0.000000
      8         16.500020   0.000000
      9         25.210393   0.000000
     10         27.594330   0.000000
     11         39.873297   0.000000
     12         39.970664   0.000000
 
  0.4000000E+00  0.4000000E+00  0.0000000E+00  0.6000000E-02
      1          2.549130   1.000000
      2          3.164098   1.000000
      3          5.685006   1.000000
      4          5.704341   1.000000
      5          5.704342   1.000000
      6          6.818545   1.000000
      7         17.402990   0.000000
      8         21.004783   0.000000
      9         21.004787   0.000000
     10         24.971757   0.000000
     11         27.532175   0.000000
     12         48.504825   0.000000
 
  0.5000000E+00  0.4000000E+00  0.0000000E+00  0.2400000E-01
      1          2.705695   1.000000
      2          3.135736   1.000000
      3          5.474708   1.000000
      4          5.616159   1.000000
      5          5.841843   1.000000
      6          8.734696   0.000000
      7         15.441150   0.000000
      8         18.246914   0.000000
      9         20.826380   0.000000
     10         25.709887   0.000000
     11         29.206618   0.000000
     12         46.918213   0.000000
 
 -0.4000000E+00  0.4000000E+00  0.0000000E+00  0.1200000E-01
      1          2.988190   1.000000
      2          3.280401   1.000000
      3          4.935618   1.000000
      4          5.454966   1.000000
      5          5.765329   1.000000
      6         10.819595   0.000000
      7         14.502475   0.000000
      8         14.970071   0.000000
      9         21.646040   0.000000
     10         26.182053   0.000000
     11         33.452479   0.000000
     12         44.634758   0.000000
 
  0.5000000E+00  0.5000000E+00  0.0000000E+00  0.3000000E-02
      1          2.596476   1.000000
      2          3.041015   1.000000
      3          5.737248   1.000000
      4          5.888399   1.000000
      5          5.888399   1.000000
      6          8.879119   0.000000
      7         14.360927   0.000000
      8         20.312402   0.000000
      9         20.312407   0.000000
     10         24.761882   0.000000
     11         27.335923   0.000000
     12         49.101501   0.000000
 
  0.3000000E+00  0.2000000E+00  0.1000000E+00  0.2400000E-01
      1          0.402130   1.000000
      2          3.931123   1.000000
      3          4.551443   1.000000
      4          4.833916   1.000000
      5          5.000588   1.000000
      6          5.517368   1.000000
      7         22.596970   0.000000
      8         23.209229   0.000000
      9         29.237075   0.000000
     10         30.676343   0.000000
     11         32.893808   0.000000
     12         37.525066   0.000000
 
  0.4000000E+00  0.2000000E+00  0.1000000E+00  0.4800000E-01
      1          1.758091   1.000000
      2          3.855074   1.000000
      3          4.339104   1.000000
      4          4.840307   1.000000
      5          5.281481   1.000000
      6          6.023798   1.000000
      7         18.072516   0.000000
      8         22.329898   0.000000
      9         26.747516   0.000000
     10         30.786411   0.000000
     11         34.541937   0.000000
     12         36.692207   0.000000
 
  0.5000000E+00  0.2000000E+00  0.1000000E+00  0.4800000E-01
      1          2.719824   1.000000
      2          4.042296   1.000000
      3          4.266861   1.000000
      4          4.740780   1.000000
      5          5.604347   1.000000
      6          7.165991   0.999990
      7         13.886575   0.000000
      8         22.382058   0.000000
      9         24.682061   0.000000
     10         30.260804   0.000000
     11         34.348627   0.000000
     12         39.101876   0.000000
 
 -0.4000000E+00  0.2000000E+00  0.1000000E+00  0.2400000E-01
      1          2.910158   1.000000
      2          4.006515   1.000000
      3          4.533863   1.000000
      4          4.681806   1.000000
      5          5.709638   1.000000
      6          8.675933   0.000000
      7         11.332526   0.000000
      8         22.960160   0.000000
      9         23.414426   0.000000
     10         30.035359   0.000000
     11         34.093497   0.000000
     12         39.414548   0.000000
 
  0.4000000E+00  0.3000000E+00  0.1000000E+00  0.2400000E-01
      1          2.087016   1.000000
      2          3.571670   1.000000
      3          4.449756   1.000000
      4          5.273307   1.000000
      5          5.331902   1.000000
      6          6.050525   1.000000
      7         20.259311   0.000000
      8         20.828637   0.000000
      9         23.202343   0.000000
     10         28.957370   0.000000
     11         31.092068   0.000000
     12         40.137965   0.000000
 
  0.5000000E+00  0.3000000E+00  0.1000000E+00  0.4800000E-01
      1          2.928369   1.000000
      2          3.571422   1.000000
      3          4.274830   1.000000
      4          5.172678   1.000000
      5          5.640057   1.000000
      6          7.463539   0.000000
      7         16.146675   0.000000
      8         20.400007   0.000000
      9         20.946999   0.000000
     10         29.519536   0.000000
     11         34.140331   0.000000
     12         38.534247   0.000000
 
 -0.4000000E+00  0.3000000E+00  0.1000000E+00  0.4800000E-01
      1          3.291758   1.000000
      2          3.636292   1.000000
      3          4.238652   1.000000
      4          5.031020   1.000000
      5          5.720206   1.000000
      6          9.830355   0.000000
      7         12.482898   0.000000
      8         19.198399   0.000000
      9         21.060462   0.000000
     10         29.866928   0.000000
     11         36.369580   0.000000
     12         39.529284   0.000000
 
 -0.3000000E+00  0.3000000E+00  0.1000000E+00  0.4800000E-01
      1          3.356524   1.000000
      2          3.737551   1.000000
      3          4.072712   1.000000
      4          4.999626   1.000000
      5          5.573754   1.000000
      6          9.096480   0.000000
      7         13.560803   0.000000
      8         18.186446   0.000000
      9         22.378866   0.000000
     10         30.730981   0.000000
     11         35.586263   0.000000
     12         40.763887   0.000000
 
 -0.2000000E+00  0.3000000E+00  0.1000000E+00  0.2400000E-01
      1          2.852238   1.000000
      2          3.791252   1.000000
      3          4.053587   1.000000
      4          5.054869   1.000000
      5          5.295047   1.000000
      6          7.132548   1.000000
      7         17.165973   0.000000
      8         18.266352   0.000000
      9         24.313535   0.000000
     10         32.127497   0.000000
     11         34.019916   0.000000
     12         37.757793   0.000000
 
  0.5000000E+00  0.4000000E+00  0.1000000E+00  0.2400000E-01
      1          2.791383   1.000000
      2          3.283723   1.000000
      3          4.919322   1.000000
      4          5.572475   1.000000
      5          5.702496   1.000000
      6          7.837376   0.000000
      7         17.734339   0.000000
      8         18.654200   0.000000
      9         19.299422   0.000000
     10         27.934626   0.000000
     11         30.209448   0.000000
     12         42.893166   0.000000
 
 -0.4000000E+00  0.4000000E+00  0.1000000E+00  0.4800000E-01
      1          3.077863   1.000000
      2          3.381517   1.000000
      3          4.640534   1.000000
      4          5.373335   1.000000
      5          5.809940   1.000000
      6         10.259989   0.000000
      7         15.060262   0.000000
      8         16.041631   0.000000
      9         19.431741   0.000000
     10         28.917607   0.000000
     11         33.740726   0.000000
     12         40.989703   0.000000
 
 -0.3000000E+00  0.4000000E+00  0.1000000E+00  0.2400000E-01
      1          3.393860   1.000000
      2          3.541738   1.000000
      3          4.246126   1.000000
      4          5.183841   1.000000
      5          5.705280   1.000000
      6         11.733957   0.000000
      7         12.854222   0.000000
      8         15.537837   0.000000
      9         20.589315   0.000000
     10         29.691758   0.000000
     11         38.575335   0.000000
     12         38.749305   0.000000
 
 -0.4000000E+00  0.5000000E+00  0.1000000E+00  0.1200000E-01
      1          2.806279   1.000000
      2          3.174975   1.000000
      3          5.243338   1.000000
      4          5.579001   1.000000
      5          5.888677   1.000000
      6          9.954362   0.000000
      7         14.545586   0.000000
      8         18.067074   0.000000
      9         18.730622   0.000000
     10         27.603226   0.000000
     11         29.956712   0.000000
     12         44.846052   0.000000
 
 -0.4000000E+00  0.4000000E+00  0.2000000E+00  0.2400000E-01
      1          3.312839   1.000000
      2          3.647886   1.000000
      3          4.065564   1.000000
      4          5.242282   1.000000
      5          5.699178   1.000000
      6          9.535705   0.000000
      7         15.542137   0.000000
      8         17.008899   0.000000
      9         18.820149   0.000000
     10         32.904844   0.000000
     11         34.056964   0.000000
     12         37.620203   0.000000
 
 -0.3000000E+00  0.4000000E+00  0.2000000E+00  0.2400000E-01
      1          3.406021   1.000000
      2          3.754992   1.000000
      3          3.977496   1.000000
      4          5.148338   1.000000
      5          5.800198   1.000000
      6         12.123335   0.000000
      7         12.712565   0.000000
      8         17.252168   0.000000
      9         17.453434   0.000000
     10         33.459236   0.000000
     11         35.118244   0.000000
     12         38.709900   0.000000
 
 -0.3000000E+00  0.5000000E+00  0.2000000E+00  0.1200000E-01
      1          3.229438   1.000000
      2          3.587986   1.000000
      3          4.296182   1.000000
      4          5.238287   1.000000
      5          5.889093   1.000000
      6         12.175249   0.000000
      7         14.947334   0.000000
      8         15.184817   0.000000
      9         16.615831   0.000000
     10         32.528818   0.000000
     11         34.887946   0.000000
     12         38.355870   0.000000
