       N       E                     dE             d eps       ncg     rms          rms(c)
DAV:   1     0.407752918077E+02    0.40775E+02   -0.54074E+03  1304   0.152E+03
DAV:   2    -0.321910999189E+01   -0.43994E+02   -0.40247E+02  1148   0.200E+02
DAV:   3    -0.460771468436E+01   -0.13886E+01   -0.13750E+01  1328   0.400E+01
DAV:   4    -0.461718890925E+01   -0.94742E-02   -0.94730E-02  1268   0.288E+00
DAV:   5    -0.461727653699E+01   -0.87628E-04   -0.87627E-04  1400   0.289E-01    0.765E+00
DAV:   6    -0.409277601812E+01    0.52450E+00   -0.14442E+01  1340   0.718E+01    0.393E+00
DAV:   7    -0.372482654154E+01    0.36795E+00   -0.23036E+00  1332   0.286E+01    0.579E-01
DAV:   8    -0.371394050145E+01    0.10886E-01   -0.43531E-03  1308   0.965E-01    0.299E-01
DAV:   9    -0.371237321705E+01    0.15673E-02   -0.97583E-03  1400   0.170E+00    0.303E-02
DAV:  10    -0.371237477971E+01   -0.15627E-05   -0.38711E-05  1640   0.101E-01    0.939E-03
DAV:  11    -0.371237349621E+01    0.12835E-05   -0.16171E-06  1416   0.234E-02    0.224E-04
DAV:  12    -0.371237361173E+01   -0.11552E-06   -0.13438E-08  1004   0.115E-03    0.120E-04
DAV:  13    -0.371237364487E+01   -0.33144E-07   -0.29548E-09   800   0.445E-04    0.468E-05
DAV:  14    -0.371237365709E+01   -0.12219E-07   -0.31726E-10   688   0.270E-04    0.688E-06
DAV:  15    -0.371237365554E+01    0.15532E-08   -0.41526E-11   672   0.917E-05
   1 F= -.37123737E+01 E0= -.37121982E+01  d E =-.371237E+01
       N       E                     dE             d eps       ncg     rms          rms(c)
DAV:   1    -0.382101638803E+01   -0.10864E+00   -0.17654E+00  1348   0.288E+01    0.268E+00
DAV:   2    -0.374868232848E+01    0.72334E-01   -0.13851E+00  1316   0.213E+01    0.110E+00
DAV:   3    -0.371629602461E+01    0.32386E-01   -0.23347E-01  1316   0.907E+00    0.421E-01
DAV:   4    -0.371311210277E+01    0.31839E-02   -0.75502E-03  1576   0.110E+00    0.533E-02
DAV:   5    -0.371307378977E+01    0.38313E-04   -0.26994E-04  1344   0.304E-01    0.132E-02
DAV:   6    -0.371307390369E+01   -0.11392E-06   -0.75854E-06  1692   0.414E-02    0.523E-04
DAV:   7    -0.371307410999E+01   -0.20630E-06   -0.48557E-08  1220   0.237E-03    0.303E-04
DAV:   8    -0.371307402670E+01    0.83295E-07   -0.20197E-09   768   0.924E-04    0.662E-05
DAV:   9    -0.371307401443E+01    0.12268E-07   -0.29195E-10   612   0.329E-04    0.444E-06
DAV:  10    -0.371307401682E+01   -0.23897E-08   -0.54055E-11   604   0.954E-05
   2 F= -.37130740E+01 E0= -.37128993E+01  d E =-.700361E-03
       N       E                     dE             d eps       ncg     rms          rms(c)
DAV:   1    -0.372773504477E+01   -0.14661E-01   -0.22677E-01  1344   0.999E+00    0.101E+00
DAV:   2    -0.371908135593E+01    0.86537E-02   -0.20748E-01  1312   0.828E+00    0.442E-01
DAV:   3    -0.371374135758E+01    0.53400E-02   -0.34701E-02  1312   0.348E+00    0.134E-01
DAV:   4    -0.371338200785E+01    0.35935E-03   -0.32653E-04  1364   0.161E-01    0.602E-03
DAV:   5    -0.371337970359E+01    0.23043E-05   -0.16240E-05  1468   0.721E-02    0.490E-03
DAV:   6    -0.371337847764E+01    0.12259E-05   -0.10223E-06  1572   0.156E-02    0.117E-04
DAV:   7    -0.371337850547E+01   -0.27831E-07   -0.24711E-09   780   0.554E-04    0.813E-05
DAV:   8    -0.371337853146E+01   -0.25985E-07   -0.70722E-10   612   0.552E-04    0.898E-06
DAV:   9    -0.371337853520E+01   -0.37419E-08   -0.55485E-11   572   0.105E-04
   3 F= -.37133785E+01 E0= -.37132037E+01  d E =-.100488E-02
