<?xml version="1.0" encoding="ISO-8859-1"?>
<modeling>
 <generator>
  <i name="program" type="string">vasp </i>
  <i name="version" type="string">6.4.2  </i>
  <i name="subversion" type="string">20Jul23 (build Oct 16 2024 22:45:58) complex                          parallel </i>
  <i name="platform" type="string">LinuxIFC </i>
  <i name="date" type="string">2025 02 10 </i>
  <i name="time" type="string">22:35:26 </i>
 </generator>
 <incar>
  <i type="string" name="SYSTEM">Cu FCC</i>
  <i type="string" name="PREC">Accurate</i>
  <i type="int" name="IBRION">     2</i>
  <i name="EDIFF">      0.00000001</i>
  <i type="int" name="NSW">   100</i>
  <i type="int" name="ISIF">     3</i>
  <i name="ENCUT">    520.00000000</i>
  <i type="int" name="ISMEAR">     0</i>
  <i name="SIGMA">      0.03000000</i>
  <i type="logical" name="LWAVE"> F  </i>
  <i type="logical" name="LCHARG"> F  </i>
  <i type="string" name="GGA">PE</i>
 </incar>
 <primitive_cell>
  <structure name="primitive_cell" >
   <crystal>
    <varray name="basis" >
     <v>       0.00000000       1.80994999       1.80994999 </v>
     <v>       1.80994999       0.00000000       1.80994999 </v>
     <v>       1.80994999       1.80994999       0.00000000 </v>
    </varray>
    <i name="volume">     11.85849908 </i>
    <varray name="rec_basis" >
     <v>      -0.27625073       0.27625073       0.27625073 </v>
     <v>       0.27625073      -0.27625073       0.27625073 </v>
     <v>       0.27625073       0.27625073      -0.27625073 </v>
    </varray>
   </crystal>
   <varray name="positions" >
    <v>       0.00000000       0.00000000       0.00000000 </v>
   </varray>
  </structure>
  <varray name="primitive_index" >
   <v type="int" >        1 </v>
  </varray>
 </primitive_cell>
 <kpoints>
  <generation param="Gamma">
   <v type="int" name="divisions">      10       10       10 </v>
   <v name="usershift">      0.00000000       0.00000000       0.00000000 </v>
   <v name="genvec1">      0.10000000       0.00000000       0.00000000 </v>
   <v name="genvec2">      0.00000000       0.10000000       0.00000000 </v>
   <v name="genvec3">      0.00000000       0.00000000       0.10000000 </v>
   <v name="shift">      0.00000000       0.00000000       0.00000000 </v>
  </generation>
  <varray name="kpointlist" >
   <v>       0.00000000       0.00000000       0.00000000 </v>
   <v>       0.10000000       0.00000000       0.00000000 </v>
   <v>       0.20000000       0.00000000       0.00000000 </v>
   <v>       0.30000000       0.00000000       0.00000000 </v>
   <v>       0.40000000       0.00000000       0.00000000 </v>
   <v>       0.50000000       0.00000000       0.00000000 </v>
   <v>       0.10000000       0.10000000       0.00000000 </v>
   <v>       0.20000000       0.10000000       0.00000000 </v>
   <v>       0.30000000       0.10000000       0.00000000 </v>
   <v>       0.40000000       0.10000000       0.00000000 </v>
   <v>       0.50000000       0.10000000       0.00000000 </v>
   <v>      -0.40000000       0.10000000       0.00000000 </v>
   <v>      -0.30000000       0.10000000       0.00000000 </v>
   <v>      -0.20000000       0.10000000       0.00000000 </v>
   <v>      -0.10000000       0.10000000       0.00000000 </v>
   <v>       0.20000000       0.20000000       0.00000000 </v>
   <v>       0.30000000       0.20000000       0.00000000 </v>
   <v>       0.40000000       0.20000000       0.00000000 </v>
   <v>       0.50000000       0.20000000       0.00000000 </v>
   <v>      -0.40000000       0.20000000       0.00000000 </v>
   <v>      -0.30000000       0.20000000       0.00000000 </v>
   <v>      -0.20000000       0.20000000       0.00000000 </v>
   <v>       0.30000000       0.30000000       0.00000000 </v>
   <v>       0.40000000       0.30000000       0.00000000 </v>
   <v>       0.50000000       0.30000000       0.00000000 </v>
   <v>      -0.40000000       0.30000000       0.00000000 </v>
   <v>      -0.30000000       0.30000000       0.00000000 </v>
   <v>       0.40000000       0.40000000       0.00000000 </v>
   <v>       0.50000000       0.40000000       0.00000000 </v>
   <v>      -0.40000000       0.40000000       0.00000000 </v>
   <v>       0.50000000       0.50000000       0.00000000 </v>
   <v>       0.30000000       0.20000000       0.10000000 </v>
   <v>       0.40000000       0.20000000       0.10000000 </v>
   <v>       0.50000000       0.20000000       0.10000000 </v>
   <v>      -0.40000000       0.20000000       0.10000000 </v>
   <v>       0.40000000       0.30000000       0.10000000 </v>
   <v>       0.50000000       0.30000000       0.10000000 </v>
   <v>      -0.40000000       0.30000000       0.10000000 </v>
   <v>      -0.30000000       0.30000000       0.10000000 </v>
   <v>      -0.20000000       0.30000000       0.10000000 </v>
   <v>       0.50000000       0.40000000       0.10000000 </v>
   <v>      -0.40000000       0.40000000       0.10000000 </v>
   <v>      -0.30000000       0.40000000       0.10000000 </v>
   <v>      -0.40000000       0.50000000       0.10000000 </v>
   <v>      -0.40000000       0.40000000       0.20000000 </v>
   <v>      -0.30000000       0.40000000       0.20000000 </v>
   <v>      -0.30000000       0.50000000       0.20000000 </v>
  </varray>
  <varray name="weights" >
   <v>       0.00100000 </v>
   <v>       0.00800000 </v>
   <v>       0.00800000 </v>
   <v>       0.00800000 </v>
   <v>       0.00800000 </v>
   <v>       0.00400000 </v>
   <v>       0.00600000 </v>
   <v>       0.02400000 </v>
   <v>       0.02400000 </v>
   <v>       0.02400000 </v>
   <v>       0.02400000 </v>
   <v>       0.02400000 </v>
   <v>       0.02400000 </v>
   <v>       0.02400000 </v>
   <v>       0.01200000 </v>
   <v>       0.00600000 </v>
   <v>       0.02400000 </v>
   <v>       0.02400000 </v>
   <v>       0.02400000 </v>
   <v>       0.02400000 </v>
   <v>       0.02400000 </v>
   <v>       0.01200000 </v>
   <v>       0.00600000 </v>
   <v>       0.02400000 </v>
   <v>       0.02400000 </v>
   <v>       0.02400000 </v>
   <v>       0.01200000 </v>
   <v>       0.00600000 </v>
   <v>       0.02400000 </v>
   <v>       0.01200000 </v>
   <v>       0.00300000 </v>
   <v>       0.02400000 </v>
   <v>       0.04800000 </v>
   <v>       0.04800000 </v>
   <v>       0.02400000 </v>
   <v>       0.02400000 </v>
   <v>       0.04800000 </v>
   <v>       0.04800000 </v>
   <v>       0.04800000 </v>
   <v>       0.02400000 </v>
   <v>       0.02400000 </v>
   <v>       0.04800000 </v>
   <v>       0.02400000 </v>
   <v>       0.01200000 </v>
   <v>       0.02400000 </v>
   <v>       0.02400000 </v>
   <v>       0.01200000 </v>
  </varray>
 </kpoints>
 <parameters>
  <separator name="general" >
   <i type="string" name="SYSTEM">Cu FCC</i>
   <i type="logical" name="LCOMPAT"> F  </i>
  </separator>
  <separator name="electronic" >
   <i type="string" name="PREC">accura</i>
   <i name="ENMAX">    520.00000000</i>
   <i name="ENAUG">    586.98000000</i>
   <i name="EDIFF">      0.00000001</i>
   <i type="int" name="IALGO">    38</i>
   <i type="int" name="IWAVPR">    11</i>
   <i type="int" name="NBANDS">    12</i>
   <i type="int" name="NBANDSLOW">    -1</i>
   <i type="int" name="NBANDSHIGH">    -1</i>
   <i name="NELECT">     11.00000000</i>
   <i type="int" name="TURBO">     0</i>
   <i type="int" name="IRESTART">     0</i>
   <i type="int" name="NREBOOT">     0</i>
   <i type="int" name="NMIN">     0</i>
   <i name="EREF">      0.00000000</i>
   <separator name="electronic smearing" >
    <i type="int" name="ISMEAR">     0</i>
    <i name="SIGMA">      0.03000000</i>
    <i name="KSPACING">      0.50000000</i>
    <i type="logical" name="KGAMMA"> T  </i>
    <i type="logical" name="KBLOWUP"> T  </i>
   </separator>
   <separator name="electronic projectors" >
    <i type="logical" name="LREAL"> F  </i>
    <v name="ROPT">      0.00000000</v>
    <i type="int" name="LMAXPAW">  -100</i>
    <i type="int" name="LMAXMIX">     2</i>
    <i type="logical" name="NLSPLINE"> F  </i>
   </separator>
   <separator name="electronic startup" >
    <i type="int" name="ISTART">     0</i>
    <i type="int" name="ICHARG">     2</i>
    <i type="int" name="INIWAV">     1</i>
   </separator>
   <separator name="electronic spin" >
    <i type="int" name="ISPIN">     1</i>
    <i type="logical" name="LNONCOLLINEAR"> F  </i>
    <v name="MAGMOM">      1.00000000</v>
    <i name="NUPDOWN">     -1.00000000</i>
    <i type="logical" name="LSORBIT"> F  </i>
    <v name="SAXIS">      0.00000000      0.00000000      1.00000000</v>
    <i type="logical" name="LSPIRAL"> F  </i>
    <v name="QSPIRAL">      0.00000000      0.00000000      0.00000000</v>
    <i type="logical" name="LZEROZ"> F  </i>
   </separator>
   <separator name="electronic exchange-correlation" >
    <i type="logical" name="LASPH"> F  </i>
    <i type="logical" name="LMETAGGA"> F  </i>
   </separator>
   <separator name="electronic convergence" >
    <i type="int" name="NELM">    60</i>
    <i type="int" name="NELMDL">    -5</i>
    <i type="int" name="NELMIN">     2</i>
    <i name="ENINI">    520.00000000</i>
    <separator name="electronic convergence detail" >
     <i type="logical" name="LDIAG"> T  </i>
     <i type="logical" name="LSUBROT"> F  </i>
     <i name="WEIMIN">      0.00100000</i>
     <i name="EBREAK">      0.00000000</i>
     <i name="DEPER">      0.30000000</i>
     <i type="int" name="NRMM">     4</i>
     <i name="TIME">      0.40000000</i>
    </separator>
   </separator>
   <separator name="electronic mixer" >
    <i name="AMIX">      0.40000000</i>
    <i name="BMIX">      1.00000000</i>
    <i name="AMIN">      0.10000000</i>
    <i name="AMIX_MAG">      1.60000000</i>
    <i name="BMIX_MAG">      1.00000000</i>
    <separator name="electronic mixer details" >
     <i type="int" name="IMIX">     4</i>
     <i type="logical" name="MIXFIRST"> F  </i>
     <i type="int" name="MAXMIX">   -45</i>
     <i name="WC">    100.00000000</i>
     <i type="int" name="INIMIX">     1</i>
     <i type="int" name="MIXPRE">     1</i>
     <i type="int" name="MREMOVE">     5</i>
    </separator>
   </separator>
   <separator name="electronic dipolcorrection" >
    <i type="logical" name="LDIPOL"> F  </i>
    <i type="logical" name="LMONO"> F  </i>
    <i type="int" name="IDIPOL">     0</i>
    <i name="EPSILON">      1.00000000</i>
    <v name="DIPOL">   -100.00000000   -100.00000000   -100.00000000</v>
    <i name="EFIELD">      0.00000000</i>
   </separator>
  </separator>
  <separator name="grids" >
   <i type="int" name="NGX">    20</i>
   <i type="int" name="NGY">    20</i>
   <i type="int" name="NGZ">    20</i>
   <i type="int" name="NGXF">    40</i>
   <i type="int" name="NGYF">    40</i>
   <i type="int" name="NGZF">    40</i>
   <i type="logical" name="ADDGRID"> F  </i>
  </separator>
  <separator name="ionic" >
   <i type="int" name="NSW">   100</i>
   <i type="int" name="IBRION">     2</i>
   <i type="int" name="MDALGO">     0</i>
   <i type="int" name="ISIF">     3</i>
   <i name="PSTRESS">      0.00000000</i>
   <i name="EDIFFG">      0.00000010</i>
   <i type="int" name="NFREE">     1</i>
   <i name="POTIM">      0.50000000</i>
   <i name="SMASS">     -3.00000000</i>
   <i name="SCALEE">      1.00000000</i>
  </separator>
  <separator name="ionic md" >
   <i name="TEBEG">      0.00010000</i>
   <i name="TEEND">      0.00010000</i>
   <i type="int" name="NBLOCK">     1</i>
   <i type="int" name="KBLOCK">   100</i>
   <i type="int" name="NPACO">   256</i>
   <i name="APACO">     10.00000000</i>
  </separator>
  <separator name="symmetry" >
   <i type="int" name="ISYM">     2</i>
   <i name="SYMPREC">      0.00001000</i>
  </separator>
  <separator name="dos" >
   <i type="int" name="LORBIT">     0</i>
   <v name="RWIGS">     -1.00000000</v>
   <i type="int" name="NEDOS">   301</i>
   <i name="EMIN">     10.00000000</i>
   <i name="EMAX">    -10.00000000</i>
   <i name="EFERMI">      0.00000000</i>
  </separator>
  <separator name="writing" >
   <i type="int" name="NWRITE">     2</i>
   <i type="logical" name="LWAVE"> F  </i>
   <i type="logical" name="LDOWNSAMPLE"> F  </i>
   <i type="logical" name="LCHARG"> F  </i>
   <i type="logical" name="LPARD"> F  </i>
   <i type="logical" name="LVTOT"> F  </i>
   <i type="logical" name="LVHAR"> F  </i>
   <i type="logical" name="LELF"> F  </i>
   <i type="logical" name="LOPTICS"> F  </i>
   <v name="STM">      0.00000000      0.00000000      0.00000000      0.00000000      0.00000000      0.00000000      0.00000000</v>
  </separator>
  <separator name="performance" >
   <i type="int" name="NPAR">     4</i>
   <i type="int" name="NSIM">     4</i>
   <i type="int" name="NBLK">    -1</i>
   <i type="logical" name="LPLANE"> T  </i>
   <i type="logical" name="LSCALAPACK"> T  </i>
   <i type="logical" name="LSCAAWARE"> F  </i>
   <i type="logical" name="LSCALU"> F  </i>
   <i type="logical" name="LASYNC"> F  </i>
   <i type="logical" name="LORBITALREAL"> F  </i>
  </separator>
  <separator name="miscellaneous" >
   <i type="int" name="IDIOT">     3</i>
   <i type="int" name="PHON_NSTRUCT">    -1</i>
   <i type="logical" name="LMUSIC"> F  </i>
   <v name="POMASS">     63.54600000</v>
   <v name="DARWINR">      0.00000000</v>
   <v name="DARWINV">      1.00000000</v>
   <i type="logical" name="LCORR"> T  </i>
  </separator>
  <i type="logical" name="GGA_COMPAT"> T  </i>
  <i type="logical" name="LBERRY"> F  </i>
  <i type="int" name="ICORELEVEL">     0</i>
  <i type="logical" name="LDAU"> F  </i>
  <i type="int" name="I_CONSTRAINED_M">     0</i>
  <separator name="electronic exchange-correlation" >
   <i type="string" name="GGA">PE</i>
   <i type="int" name="VOSKOWN">     0</i>
   <i type="logical" name="LHFCALC"> F  </i>
   <i type="string" name="PRECFOCK"></i>
   <i type="logical" name="LSYMGRAD"> F  </i>
   <i type="logical" name="LHFONE"> F  </i>
   <i type="logical" name="LRHFCALC"> F  </i>
   <i type="logical" name="LTHOMAS"> F  </i>
   <i type="logical" name="LMODELHF"> F  </i>
   <i type="logical" name="LFOCKACE"> F  </i>
   <i name="ENCUT4O">     -1.00000000</i>
   <i type="int" name="EXXOEP">     0</i>
   <i type="int" name="FOURORBIT">     0</i>
   <i name="AEXX">      0.00000000</i>
   <i name="HFALPHA">      0.00000000</i>
   <i name="MCALPHA">      0.00000000</i>
   <i name="ALDAX">      1.00000000</i>
   <i name="AGGAX">      1.00000000</i>
   <i name="ALDAC">      1.00000000</i>
   <i name="AGGAC">      1.00000000</i>
   <i type="int" name="NKREDX">     1</i>
   <i type="int" name="NKREDY">     1</i>
   <i type="int" name="NKREDZ">     1</i>
   <i type="logical" name="SHIFTRED"> F  </i>
   <i type="logical" name="ODDONLY"> F  </i>
   <i type="logical" name="EVENONLY"> F  </i>
   <i type="int" name="LMAXFOCK">     0</i>
   <i type="int" name="NMAXFOCKAE">     0</i>
   <i type="logical" name="LFOCKAEDFT"> F  </i>
   <i name="HFSCREEN">      0.00000000</i>
   <i name="HFSCREENC">      0.00000000</i>
   <i type="int" name="NBANDSGWLOW">     0</i>
  </separator>
  <separator name="vdW DFT" >
   <i type="logical" name="LUSE_VDW"> F  </i>
   <i type="int" name="IVDW_NL">     1</i>
   <i type="logical" name="LSPIN_VDW"> F  </i>
   <i name="Zab_VDW">     -0.84910000</i>
   <i name="PARAM1">      0.12340000</i>
   <i name="PARAM2">      1.00000000</i>
   <i name="PARAM3">      0.00000000</i>
  </separator>
  <separator name="model GW" >
   <i type="int" name="MODEL_GW">     0</i>
   <i name="MODEL_EPS0">      7.11509945</i>
   <i name="MODEL_ALPHA">      1.00000000</i>
  </separator>
  <separator name="linear response parameters" >
   <i type="logical" name="LEPSILON"> F  </i>
   <i type="logical" name="LRPA"> F  </i>
   <i type="logical" name="LNABLA"> F  </i>
   <i type="logical" name="LVEL"> F  </i>
   <i name="CSHIFT">      0.10000000</i>
   <i name="OMEGAMAX">     -1.00000000</i>
   <i name="DEG_THRESHOLD">      0.00200000</i>
   <i name="RTIME">     -0.10000000</i>
   <i name="WPLASMAI">      0.00000000</i>
   <v name="DFIELD">      0.00000000      0.00000000      0.00000000</v>
   <v name="WPLASMA">      0.00000000      0.00000000      0.00000000      0.00000000      0.00000000      0.00000000      0.00000000      0.00000000      0.00000000</v>
  </separator>
  <separator name="orbital magnetization" >
   <i type="logical" name="NUCIND"> F  </i>
   <v name="MAGPOS">      0.00000000      0.00000000      0.00000000</v>
   <i type="logical" name="LNICSALL"> T  </i>
   <i type="logical" name="ORBITALMAG"> F  </i>
   <i type="logical" name="LMAGBLOCH"> F  </i>
   <i type="logical" name="LCHIMAG"> F  </i>
   <i type="logical" name="LGAUGE"> T  </i>
   <i type="int" name="MAGATOM">     0</i>
   <v name="MAGDIPOL">      0.00000000      0.00000000      0.00000000</v>
   <v name="AVECCONST">      0.00000000      0.00000000      0.00000000</v>
  </separator>
  <separator name="response functions" >
   <i type="logical" name="LALL_IN_ONE"> F  </i>
   <i type="int" name="IALL_IN_ONE">    -1</i>
   <i type="int" name="NBANDS_WAVE">    -1</i>
   <i type="logical" name="LFINITE_TEMPERATURE"> F  </i>
   <i type="logical" name="LADDER"> F  </i>
   <i type="logical" name="LRPAFORCE"> F  </i>
   <i type="logical" name="LFXC"> F  </i>
   <i type="logical" name="LHARTREE"> T  </i>
   <i type="int" name="IBSE">     0</i>
   <v type="int" name="KPOINT">    -1     0     0     0</v>
   <i type="logical" name="LTCTC"> F  </i>
   <i type="logical" name="LTCTE"> F  </i>
   <i type="logical" name="LTETE"> F  </i>
   <i type="logical" name="LTRIPLET"> F  </i>
   <i type="logical" name="LFXCEPS"> F  </i>
   <i type="logical" name="LFXHEG"> F  </i>
   <i type="int" name="NATURALO">     2</i>
   <i type="logical" name="LHOLEGF"> F  </i>
   <i type="logical" name="L2ORDER"> F  </i>
   <i type="logical" name="LDMP1"> F  </i>
   <i type="logical" name="LMP2LT"> F  </i>
   <i type="logical" name="LSMP2LT"> F  </i>
   <i type="logical" name="LGWLF"> F  </i>
   <i name="ENCUTGW">     -1.60000002</i>
   <i name="ENCUTGWSOFT">     -1.60000002</i>
   <i name="ENCUTLF">     -1.00000000</i>
   <i type="logical" name="LESF_SPLINES"> F  </i>
   <i type="int" name="LMAXMP2">    -1</i>
   <i name="SCISSOR">      0.00000000</i>
   <i type="int" name="NOMEGA">     0</i>
   <i type="int" name="NOMEGAR">     0</i>
   <i type="int" name="NBANDSGW">    -1</i>
   <i type="int" name="NBANDSO">    -1</i>
   <i type="int" name="NBANDSV">    -1</i>
   <i type="int" name="NELMGW">     1</i>
   <i type="int" name="NELMHF">     1</i>
   <i type="int" name="DIM">     3</i>
   <i type="int" name="IESPILON">     4</i>
   <i type="int" name="ANTIRES">     0</i>
   <i name="OMEGAMAX">    -30.00000000</i>
   <i name="OMEGAMIN">    -30.00000000</i>
   <i name="OMEGATL">   -200.00000000</i>
   <i type="int" name="OMEGAGRID">     0</i>
   <i name="CSHIFT">     -0.10000000</i>
   <i type="logical" name="LSELFENERGY"> F  </i>
   <i type="logical" name="LSPECTRAL"> F  </i>
   <i type="logical" name="LSPECTRALGW"> F  </i>
   <i type="logical" name="LSINGLES"> F  </i>
   <i type="logical" name="LFERMIGW"> F  </i>
   <i type="logical" name="ODDONLYGW"> F  </i>
   <i type="logical" name="EVENONLYGW"> F  </i>
   <i type="int" name="NKREDLFX">     1</i>
   <i type="int" name="NKREDLFY">     1</i>
   <i type="int" name="NKREDLFZ">     1</i>
   <i type="int" name="MAXMEM">  2800</i>
   <i type="int" name="TELESCOPE">     0</i>
   <i type="int" name="NTAUPAR">    -1</i>
   <i type="int" name="NOMEGAPAR">    -1</i>
   <i name="DAMP_NEWTON">      0.80000001</i>
   <i name="LAMBDA">      1.00000000</i>
  </separator>
  <separator name="External order field" >
   <i name="OFIELD_KAPPA">      0.00000000</i>
   <v name="OFIELD_K">      0.00000000      0.00000000      0.00000000</v>
   <i name="OFIELD_Q6_NEAR">      0.00000000</i>
   <i name="OFIELD_Q6_FAR">      0.00000000</i>
   <i name="OFIELD_A">      0.00000000</i>
  </separator>
  <separator name="optional k-points parameters" >
   <i type="int" name="KPOINTS_OPT_MODE">     1</i>
   <i type="logical" name="LKPOINTS_OPT"> F  </i>
  </separator>
  <separator name="solvation model" >
   <i type="logical" name="LSOL"> F  </i>
  </separator>
 </parameters>
 <atominfo>
  <atoms>       1 </atoms>
  <types>       1 </types>
  <array name="atoms" >
   <dimension dim="1">ion</dimension>
   <field type="string">element</field>
   <field type="int">atomtype</field>
   <set>
    <rc><c>Cu</c><c>   1</c></rc>
   </set>
  </array>
  <array name="atomtypes" >
   <dimension dim="1">type</dimension>
   <field type="int">atomspertype</field>
   <field type="string">element</field>
   <field>mass</field>
   <field>valence</field>
   <field type="string">pseudopotential</field>
   <set>
    <rc><c>   1</c><c>Cu</c><c>     63.54600000</c><c>     11.00000000</c><c>  PAW_PBE Cu 22Jun2005                  </c></rc>
   </set>
  </array>
 </atominfo>
 <structure name="initialpos" >
  <crystal>
   <varray name="basis" >
    <v>       0.00000000       1.80994999       1.80994999 </v>
    <v>       1.80994999       0.00000000       1.80994999 </v>
    <v>       1.80994999       1.80994999       0.00000000 </v>
   </varray>
   <i name="volume">     11.85849908 </i>
   <varray name="rec_basis" >
    <v>      -0.27625073       0.27625073       0.27625073 </v>
    <v>       0.27625073      -0.27625073       0.27625073 </v>
    <v>       0.27625073       0.27625073      -0.27625073 </v>
   </varray>
  </crystal>
  <varray name="positions" >
   <v>       0.00000000       0.00000000       0.00000000 </v>
  </varray>
 </structure>
 <calculation>
  <scstep>
   <time name="dav">    0.22    0.24</time>
   <time name="total">    0.23    0.26</time>
   <energy>
    <i name="alphaZ">     61.67121421 </i>
    <i name="ewald">  -1103.42076159 </i>
    <i name="hartreedc">   -362.70362657 </i>
    <i name="XCdc">     45.77379819 </i>
    <i name="pawpsdc">   1228.20665988 </i>
    <i name="pawaedc">  -1334.04846713 </i>
    <i name="eentropy">     -0.00072187 </i>
    <i name="bandstr">    114.32014269 </i>
    <i name="atom">   1390.97705399 </i>
    <i name="e_fr_energy">     40.77529181 </i>
    <i name="e_wo_entrp">     40.77601368 </i>
    <i name="e_0_energy">     40.77565274 </i>
   </energy>
  </scstep>
  <scstep>
   <time name="dav">    0.20    0.20</time>
   <time name="total">    0.20    0.20</time>
   <energy>
    <i name="e_fr_energy">     -3.21910999 </i>
    <i name="e_wo_entrp">     -3.21831360 </i>
    <i name="e_0_energy">     -3.21871180 </i>
   </energy>
  </scstep>
  <scstep>
   <time name="dav">    0.22    0.22</time>
   <time name="total">    0.22    0.22</time>
   <energy>
    <i name="e_fr_energy">     -4.60771468 </i>
    <i name="e_wo_entrp">     -4.60734609 </i>
    <i name="e_0_energy">     -4.60753038 </i>
   </energy>
  </scstep>
  <scstep>
   <time name="dav">    0.21    0.21</time>
   <time name="total">    0.21    0.21</time>
   <energy>
    <i name="e_fr_energy">     -4.61718891 </i>
    <i name="e_wo_entrp">     -4.61682072 </i>
    <i name="e_0_energy">     -4.61700482 </i>
   </energy>
  </scstep>
  <scstep>
   <time name="dav">    0.23    0.23</time>
   <time name="total">    0.24    0.25</time>
   <energy>
    <i name="e_fr_energy">     -4.61727654 </i>
    <i name="e_wo_entrp">     -4.61690835 </i>
    <i name="e_0_energy">     -4.61709244 </i>
   </energy>
  </scstep>
  <scstep>
   <time name="dav">    0.21    0.22</time>
   <time name="total">    0.24    0.25</time>
   <energy>
    <i name="e_fr_energy">     -4.09277602 </i>
    <i name="e_wo_entrp">     -4.09231007 </i>
    <i name="e_0_energy">     -4.09254304 </i>
   </energy>
  </scstep>
  <scstep>
   <time name="dav">    0.22    0.22</time>
   <time name="total">    0.24    0.25</time>
   <energy>
    <i name="e_fr_energy">     -3.72482654 </i>
    <i name="e_wo_entrp">     -3.72441337 </i>
    <i name="e_0_energy">     -3.72461996 </i>
   </energy>
  </scstep>
  <scstep>
   <time name="dav">    0.22    0.22</time>
   <time name="total">    0.25    0.26</time>
   <energy>
    <i name="e_fr_energy">     -3.71394050 </i>
    <i name="e_wo_entrp">     -3.71355540 </i>
    <i name="e_0_energy">     -3.71374795 </i>
   </energy>
  </scstep>
  <scstep>
   <time name="dav">    0.23    0.23</time>
   <time name="total">    0.26    0.26</time>
   <energy>
    <i name="e_fr_energy">     -3.71237322 </i>
    <i name="e_wo_entrp">     -3.71202258 </i>
    <i name="e_0_energy">     -3.71219790 </i>
   </energy>
  </scstep>
  <scstep>
   <time name="dav">    0.25    0.26</time>
   <time name="total">    0.29    0.30</time>
   <energy>
    <i name="e_fr_energy">     -3.71237478 </i>
    <i name="e_wo_entrp">     -3.71202390 </i>
    <i name="e_0_energy">     -3.71219934 </i>
   </energy>
  </scstep>
  <scstep>
   <time name="dav">    0.23    0.23</time>
   <time name="total">    0.26    0.26</time>
   <energy>
    <i name="e_fr_energy">     -3.71237350 </i>
    <i name="e_wo_entrp">     -3.71202255 </i>
    <i name="e_0_energy">     -3.71219802 </i>
   </energy>
  </scstep>
  <scstep>
   <time name="dav">    0.18    0.18</time>
   <time name="total">    0.21    0.21</time>
   <energy>
    <i name="e_fr_energy">     -3.71237361 </i>
    <i name="e_wo_entrp">     -3.71202266 </i>
    <i name="e_0_energy">     -3.71219814 </i>
   </energy>
  </scstep>
  <scstep>
   <time name="dav">    0.16    0.16</time>
   <time name="total">    0.19    0.19</time>
   <energy>
    <i name="e_fr_energy">     -3.71237364 </i>
    <i name="e_wo_entrp">     -3.71202269 </i>
    <i name="e_0_energy">     -3.71219817 </i>
   </energy>
  </scstep>
  <scstep>
   <time name="dav">    0.14    0.14</time>
   <time name="total">    0.17    0.17</time>
   <energy>
    <i name="e_fr_energy">     -3.71237366 </i>
    <i name="e_wo_entrp">     -3.71202270 </i>
    <i name="e_0_energy">     -3.71219818 </i>
   </energy>
  </scstep>
  <scstep>
   <time name="dav">    0.14    0.14</time>
   <time name="total">    0.16    0.16</time>
   <energy>
    <i name="alphaZ">     61.67121421 </i>
    <i name="ewald">  -1103.42076159 </i>
    <i name="hartreedc">   -339.41844611 </i>
    <i name="XCdc">     44.66837611 </i>
    <i name="pawpsdc">   1315.58556657 </i>
    <i name="pawaedc">  -1423.46229334 </i>
    <i name="eentropy">     -0.00035095 </i>
    <i name="bandstr">     49.68726745 </i>
    <i name="atom">   1390.97705399 </i>
    <i name="e_fr_energy">     -3.71237366 </i>
    <i name="e_wo_entrp">     -3.71202270 </i>
    <i name="e_0_energy">     -3.71219818 </i>
   </energy>
  </scstep>
  <structure>
   <crystal>
    <varray name="basis" >
     <v>       0.00000000       1.80994999       1.80994999 </v>
     <v>       1.80994999       0.00000000       1.80994999 </v>
     <v>       1.80994999       1.80994999       0.00000000 </v>
    </varray>
    <i name="volume">     11.85849908 </i>
    <varray name="rec_basis" >
     <v>      -0.27625073       0.27625073       0.27625073 </v>
     <v>       0.27625073      -0.27625073       0.27625073 </v>
     <v>       0.27625073       0.27625073      -0.27625073 </v>
    </varray>
   </crystal>
   <varray name="positions" >
    <v>       0.00000000       0.00000000       0.00000000 </v>
   </varray>
  </structure>
  <varray name="forces" >
   <v>      -0.00000000       0.00000000      -0.00000000 </v>
  </varray>
  <varray name="stress" >
   <v>      20.01383343      -0.00000000       0.00000000 </v>
   <v>       0.00000000      20.01383343       0.00000000 </v>
   <v>      -0.00000000      -0.00000000      20.01383343 </v>
  </varray>
  <energy>
   <i name="e_fr_energy">     -3.71237366 </i>
   <i name="e_wo_entrp">     -3.71202270 </i>
   <i name="e_0_energy">     -3.71219818 </i>
  </energy>
  <time name="totalsc">    3.52    3.62</time>
 </calculation>
 <calculation>
  <scstep>
   <time name="dav">    0.22    0.22</time>
   <time name="total">    0.25    0.25</time>
   <energy>
    <i name="alphaZ">     60.36772753 </i>
    <i name="ewald">  -1095.59134846 </i>
    <i name="hartreedc">   -337.01009222 </i>
    <i name="XCdc">     44.26496143 </i>
    <i name="pawpsdc">   1315.58502016 </i>
    <i name="pawaedc">  -1423.46172331 </i>
    <i name="eentropy">     -0.00048191 </i>
    <i name="bandstr">     41.04786640 </i>
    <i name="atom">   1390.97705399 </i>
    <i name="e_fr_energy">     -3.82101639 </i>
    <i name="e_wo_entrp">     -3.82053448 </i>
    <i name="e_0_energy">     -3.82077543 </i>
   </energy>
  </scstep>
  <scstep>
   <time name="dav">    0.22    0.22</time>
   <time name="total">    0.25    0.25</time>
   <energy>
    <i name="e_fr_energy">     -3.74868233 </i>
    <i name="e_wo_entrp">     -3.74777288 </i>
    <i name="e_0_energy">     -3.74822760 </i>
   </energy>
  </scstep>
  <scstep>
   <time name="dav">    0.22    0.22</time>
   <time name="total">    0.25    0.25</time>
   <energy>
    <i name="e_fr_energy">     -3.71629602 </i>
    <i name="e_wo_entrp">     -3.71594654 </i>
    <i name="e_0_energy">     -3.71612128 </i>
   </energy>
  </scstep>
  <scstep>
   <time name="dav">    0.27    0.28</time>
   <time name="total">    0.31    0.31</time>
   <energy>
    <i name="e_fr_energy">     -3.71311210 </i>
    <i name="e_wo_entrp">     -3.71276258 </i>
    <i name="e_0_energy">     -3.71293734 </i>
   </energy>
  </scstep>
  <scstep>
   <time name="dav">    0.22    0.22</time>
   <time name="total">    0.25    0.26</time>
   <energy>
    <i name="e_fr_energy">     -3.71307379 </i>
    <i name="e_wo_entrp">     -3.71272429 </i>
    <i name="e_0_energy">     -3.71289904 </i>
   </energy>
  </scstep>
  <scstep>
   <time name="dav">    0.27    0.27</time>
   <time name="total">    0.29    0.30</time>
   <energy>
    <i name="e_fr_energy">     -3.71307390 </i>
    <i name="e_wo_entrp">     -3.71272440 </i>
    <i name="e_0_energy">     -3.71289915 </i>
   </energy>
  </scstep>
  <scstep>
   <time name="dav">    0.20    0.21</time>
   <time name="total">    0.23    0.23</time>
   <energy>
    <i name="e_fr_energy">     -3.71307411 </i>
    <i name="e_wo_entrp">     -3.71272461 </i>
    <i name="e_0_energy">     -3.71289936 </i>
   </energy>
  </scstep>
  <scstep>
   <time name="dav">    0.16    0.16</time>
   <time name="total">    0.18    0.19</time>
   <energy>
    <i name="e_fr_energy">     -3.71307403 </i>
    <i name="e_wo_entrp">     -3.71272453 </i>
    <i name="e_0_energy">     -3.71289928 </i>
   </energy>
  </scstep>
  <scstep>
   <time name="dav">    0.14    0.14</time>
   <time name="total">    0.17    0.17</time>
   <energy>
    <i name="e_fr_energy">     -3.71307401 </i>
    <i name="e_wo_entrp">     -3.71272452 </i>
    <i name="e_0_energy">     -3.71289926 </i>
   </energy>
  </scstep>
  <scstep>
   <time name="dav">    0.14    0.14</time>
   <time name="total">    0.15    0.15</time>
   <energy>
    <i name="alphaZ">     60.36772753 </i>
    <i name="ewald">  -1095.59134846 </i>
    <i name="hartreedc">   -343.84897404 </i>
    <i name="XCdc">     44.62438258 </i>
    <i name="pawpsdc">   1308.34845225 </i>
    <i name="pawaedc">  -1416.09481372 </i>
    <i name="eentropy">     -0.00034950 </i>
    <i name="bandstr">     47.50479535 </i>
    <i name="atom">   1390.97705399 </i>
    <i name="e_fr_energy">     -3.71307402 </i>
    <i name="e_wo_entrp">     -3.71272452 </i>
    <i name="e_0_energy">     -3.71289927 </i>
   </energy>
  </scstep>
  <structure>
   <crystal>
    <varray name="basis" >
     <v>       0.00000000       1.82288442       1.82288442 </v>
     <v>       1.82288442      -0.00000000       1.82288442 </v>
     <v>       1.82288442       1.82288442       0.00000000 </v>
    </varray>
    <i name="volume">     12.11455304 </i>
    <varray name="rec_basis" >
     <v>      -0.27429057       0.27429057       0.27429057 </v>
     <v>       0.27429057      -0.27429057       0.27429057 </v>
     <v>       0.27429057       0.27429057      -0.27429057 </v>
    </varray>
   </crystal>
   <varray name="positions" >
    <v>       0.00000000      -0.00000000       0.00000000 </v>
   </varray>
  </structure>
  <varray name="forces" >
   <v>       0.00000000       0.00000000       0.00000000 </v>
  </varray>
  <varray name="stress" >
   <v>     -10.39160255       0.00000000      -0.00000000 </v>
   <v>       0.00000000     -10.39160255       0.00000000 </v>
   <v>       0.00000000       0.00000000     -10.39160255 </v>
  </varray>
  <energy>
   <i name="e_fr_energy">     -3.71307402 </i>
   <i name="e_wo_entrp">     -3.71272452 </i>
   <i name="e_0_energy">     -3.71289927 </i>
  </energy>
  <time name="totalsc">    2.49    2.53</time>
 </calculation>
 <calculation>
  <scstep>
   <time name="dav">    0.22    0.22</time>
   <time name="total">    0.25    0.25</time>
   <energy>
    <i name="alphaZ">     60.83200522 </i>
    <i name="ewald">  -1098.39284620 </i>
    <i name="hartreedc">   -344.72821405 </i>
    <i name="XCdc">     44.76982053 </i>
    <i name="pawpsdc">   1308.34813516 </i>
    <i name="pawaedc">  -1416.09450913 </i>
    <i name="eentropy">     -0.00067880 </i>
    <i name="bandstr">     50.56149823 </i>
    <i name="atom">   1390.97705399 </i>
    <i name="e_fr_energy">     -3.72773504 </i>
    <i name="e_wo_entrp">     -3.72705624 </i>
    <i name="e_0_energy">     -3.72739564 </i>
   </energy>
  </scstep>
  <scstep>
   <time name="dav">    0.22    0.22</time>
   <time name="total">    0.25    0.25</time>
   <energy>
    <i name="e_fr_energy">     -3.71908136 </i>
    <i name="e_wo_entrp">     -3.71873188 </i>
    <i name="e_0_energy">     -3.71890662 </i>
   </energy>
  </scstep>
  <scstep>
   <time name="dav">    0.21    0.22</time>
   <time name="total">    0.24    0.25</time>
   <energy>
    <i name="e_fr_energy">     -3.71374136 </i>
    <i name="e_wo_entrp">     -3.71339164 </i>
    <i name="e_0_energy">     -3.71356650 </i>
   </energy>
  </scstep>
  <scstep>
   <time name="dav">    0.23    0.23</time>
   <time name="total">    0.26    0.26</time>
   <energy>
    <i name="e_fr_energy">     -3.71338201 </i>
    <i name="e_wo_entrp">     -3.71303241 </i>
    <i name="e_0_energy">     -3.71320721 </i>
   </energy>
  </scstep>
  <scstep>
   <time name="dav">    0.23    0.24</time>
   <time name="total">    0.26    0.27</time>
   <energy>
    <i name="e_fr_energy">     -3.71337970 </i>
    <i name="e_wo_entrp">     -3.71303013 </i>
    <i name="e_0_energy">     -3.71320491 </i>
   </energy>
  </scstep>
  <scstep>
   <time name="dav">    0.25    0.25</time>
   <time name="total">    0.27    0.28</time>
   <energy>
    <i name="e_fr_energy">     -3.71337848 </i>
    <i name="e_wo_entrp">     -3.71302890 </i>
    <i name="e_0_energy">     -3.71320369 </i>
   </energy>
  </scstep>
  <scstep>
   <time name="dav">    0.16    0.16</time>
   <time name="total">    0.19    0.20</time>
   <energy>
    <i name="e_fr_energy">     -3.71337851 </i>
    <i name="e_wo_entrp">     -3.71302892 </i>
    <i name="e_0_energy">     -3.71320371 </i>
   </energy>
  </scstep>
  <scstep>
   <time name="dav">    0.14    0.14</time>
   <time name="total">    0.17    0.17</time>
   <energy>
    <i name="e_fr_energy">     -3.71337853 </i>
    <i name="e_wo_entrp">     -3.71302895 </i>
    <i name="e_0_energy">     -3.71320374 </i>
   </energy>
  </scstep>
  <scstep>
   <time name="dav">    0.14    0.14</time>
   <time name="total">    0.15    0.15</time>
   <energy>
    <i name="alphaZ">     60.83200522 </i>
    <i name="ewald">  -1098.39284620 </i>
    <i name="hartreedc">   -342.25896940 </i>
    <i name="XCdc">     44.63999115 </i>
    <i name="pawpsdc">   1310.89901894 </i>
    <i name="pawaedc">  -1418.69133400 </i>
    <i name="eentropy">     -0.00034958 </i>
    <i name="bandstr">     48.28205134 </i>
    <i name="atom">   1390.97705399 </i>
    <i name="e_fr_energy">     -3.71337854 </i>
    <i name="e_wo_entrp">     -3.71302895 </i>
    <i name="e_0_energy">     -3.71320374 </i>
   </energy>
  </scstep>
  <structure>
   <crystal>
    <varray name="basis" >
     <v>       0.00000000       1.81823508       1.81823508 </v>
     <v>       1.81823508      -0.00000000       1.81823508 </v>
     <v>       1.81823508       1.81823508       0.00000000 </v>
    </varray>
    <i name="volume">     12.02209321 </i>
    <varray name="rec_basis" >
     <v>      -0.27499194       0.27499194       0.27499194 </v>
     <v>       0.27499194      -0.27499194       0.27499194 </v>
     <v>       0.27499194       0.27499194      -0.27499194 </v>
    </varray>
   </crystal>
   <varray name="positions" >
    <v>       0.00000000      -0.00000000       0.00000000 </v>
   </varray>
  </structure>
  <varray name="forces" >
   <v>       0.00000000       0.00000000      -0.00000000 </v>
  </varray>
  <varray name="stress" >
   <v>       0.13401471       0.00000000       0.00000000 </v>
   <v>       0.00000000       0.13401471      -0.00000000 </v>
   <v>      -0.00000000       0.00000000       0.13401471 </v>
  </varray>
  <energy>
   <i name="e_fr_energy">     -3.71337854 </i>
   <i name="e_wo_entrp">     -3.71302895 </i>
   <i name="e_0_energy">     -3.71320374 </i>
  </energy>
  <time name="totalsc">    2.18    2.23</time>
  <eigenvalues>
   <array>
    <dimension dim="1">band</dimension>
    <dimension dim="2">kpoint</dimension>
    <dimension dim="3">spin</dimension>
    <field>eigene</field>
    <field>occ</field>
    <set>
     <set comment="spin 1">
      <set comment="kpoint 1">
       <r>   -1.8492    1.0000 </r>
       <r>    4.3965    1.0000 </r>
       <r>    4.3965    1.0000 </r>
       <r>    4.3965    1.0000 </r>
       <r>    5.2018    1.0000 </r>
       <r>    5.2018    1.0000 </r>
       <r>   29.8192    0.0000 </r>
       <r>   32.3260    0.0000 </r>
       <r>   32.3260    0.0000 </r>
       <r>   32.3260    0.0000 </r>
       <r>   34.8048    0.0000 </r>
       <r>   34.8048    0.0000 </r>
      </set>
      <set comment="kpoint 2">
       <r>   -1.4914    1.0000 </r>
       <r>    4.3253    1.0000 </r>
       <r>    4.4591    1.0000 </r>
       <r>    4.4591    1.0000 </r>
       <r>    5.1798    1.0000 </r>
       <r>    5.1798    1.0000 </r>
       <r>   27.2488    0.0000 </r>
       <r>   30.5196    0.0000 </r>
       <r>   31.4311    0.0000 </r>
       <r>   31.4311    0.0000 </r>
       <r>   36.1907    0.0000 </r>
       <r>   36.1907    0.0000 </r>
      </set>
      <set comment="kpoint 3">
       <r>   -0.4627    1.0000 </r>
       <r>    4.1822    1.0000 </r>
       <r>    4.5532    1.0000 </r>
       <r>    4.5532    1.0000 </r>
       <r>    5.2004    1.0000 </r>
       <r>    5.2004    1.0000 </r>
       <r>   22.1322    0.0000 </r>
       <r>   30.0302    0.0000 </r>
       <r>   30.3298    0.0000 </r>
       <r>   30.3298    0.0000 </r>
       <r>   36.6397    0.0000 </r>
       <r>   36.7403    0.0000 </r>
      </set>
      <set comment="kpoint 4">
       <r>    1.0110    1.0000 </r>
       <r>    4.2312    1.0000 </r>
       <r>    4.5117    1.0000 </r>
       <r>    4.5117    1.0000 </r>
       <r>    5.4021    1.0000 </r>
       <r>    5.4021    1.0000 </r>
       <r>   17.3297    0.0000 </r>
       <r>   29.2793    0.0000 </r>
       <r>   29.6037    0.0000 </r>
       <r>   29.6037    0.0000 </r>
       <r>   34.4473    0.0000 </r>
       <r>   34.4473    0.0000 </r>
      </set>
      <set comment="kpoint 5">
       <r>    2.1346    1.0000 </r>
       <r>    4.4119    1.0000 </r>
       <r>    4.4119    1.0000 </r>
       <r>    5.1719    1.0000 </r>
       <r>    5.6476    1.0000 </r>
       <r>    5.6476    1.0000 </r>
       <r>   13.2282    0.0000 </r>
       <r>   28.5884    0.0000 </r>
       <r>   29.2506    0.0000 </r>
       <r>   29.2506    0.0000 </r>
       <r>   32.7934    0.0000 </r>
       <r>   32.7934    0.0000 </r>
      </set>
      <set comment="kpoint 6">
       <r>    2.3918    1.0000 </r>
       <r>    4.3676    1.0000 </r>
       <r>    4.3676    1.0000 </r>
       <r>    5.7517    1.0000 </r>
       <r>    5.7517    1.0000 </r>
       <r>    6.4168    1.0000 </r>
       <r>   11.0365    0.0000 </r>
       <r>   28.3196    0.0000 </r>
       <r>   29.1632    0.0000 </r>
       <r>   29.1632    0.0000 </r>
       <r>   32.1912    0.0000 </r>
       <r>   32.1913    0.0000 </r>
      </set>
      <set comment="kpoint 7">
       <r>   -1.3729    1.0000 </r>
       <r>    4.2604    1.0000 </r>
       <r>    4.5076    1.0000 </r>
       <r>    4.5076    1.0000 </r>
       <r>    5.0805    1.0000 </r>
       <r>    5.2519    1.0000 </r>
       <r>   28.5273    0.0000 </r>
       <r>   29.3110    0.0000 </r>
       <r>   29.3110    0.0000 </r>
       <r>   30.7467    0.0000 </r>
       <r>   36.6679    0.0000 </r>
       <r>   37.1115    0.0000 </r>
      </set>
      <set comment="kpoint 8">
       <r>   -0.5684    1.0000 </r>
       <r>    4.1054    1.0000 </r>
       <r>    4.6090    1.0000 </r>
       <r>    4.6285    1.0000 </r>
       <r>    5.0200    1.0000 </r>
       <r>    5.3115    1.0000 </r>
       <r>   24.0706    0.0000 </r>
       <r>   27.7573    0.0000 </r>
       <r>   28.6048    0.0000 </r>
       <r>   31.8355    0.0000 </r>
       <r>   33.7332    0.0000 </r>
       <r>   37.1309    0.0000 </r>
      </set>
      <set comment="kpoint 9">
       <r>    0.7784    1.0000 </r>
       <r>    4.0063    1.0000 </r>
       <r>    4.5097    1.0000 </r>
       <r>    4.6484    1.0000 </r>
       <r>    5.3039    1.0000 </r>
       <r>    5.4773    1.0000 </r>
       <r>   19.1183    0.0000 </r>
       <r>   26.8266    0.0000 </r>
       <r>   27.9121    0.0000 </r>
       <r>   30.1380    0.0000 </r>
       <r>   35.0805    0.0000 </r>
       <r>   36.8305    0.0000 </r>
      </set>
      <set comment="kpoint 10">
       <r>    2.0965    1.0000 </r>
       <r>    4.2717    1.0000 </r>
       <r>    4.3970    1.0000 </r>
       <r>    4.5616    1.0000 </r>
       <r>    5.6860    1.0000 </r>
       <r>    5.9664    1.0000 </r>
       <r>   14.7145    0.0000 </r>
       <r>   26.5803    0.0000 </r>
       <r>   26.9781    0.0000 </r>
       <r>   28.4429    0.0000 </r>
       <r>   35.2961    0.0000 </r>
       <r>   36.1068    0.0000 </r>
      </set>
      <set comment="kpoint 11">
       <r>    2.5584    1.0000 </r>
       <r>    4.2476    1.0000 </r>
       <r>    4.4855    1.0000 </r>
       <r>    4.9509    1.0000 </r>
       <r>    5.7588    1.0000 </r>
       <r>    7.2681    0.2917 </r>
       <r>   11.4669    0.0000 </r>
       <r>   25.6555    0.0000 </r>
       <r>   27.0964    0.0000 </r>
       <r>   28.1597    0.0000 </r>
       <r>   34.6509    0.0000 </r>
       <r>   35.0672    0.0000 </r>
      </set>
      <set comment="kpoint 12">
       <r>    2.4924    1.0000 </r>
       <r>    4.2849    1.0000 </r>
       <r>    4.4862    1.0000 </r>
       <r>    4.8594    1.0000 </r>
       <r>    5.6203    1.0000 </r>
       <r>    6.8617    1.0000 </r>
       <r>   12.3225    0.0000 </r>
       <r>   24.7696    0.0000 </r>
       <r>   28.4195    0.0000 </r>
       <r>   28.6985    0.0000 </r>
       <r>   33.7814    0.0000 </r>
       <r>   35.0375    0.0000 </r>
      </set>
      <set comment="kpoint 13">
       <r>    1.7363    1.0000 </r>
       <r>    4.1929    1.0000 </r>
       <r>    4.4127    1.0000 </r>
       <r>    4.5714    1.0000 </r>
       <r>    5.3257    1.0000 </r>
       <r>    5.9284    1.0000 </r>
       <r>   16.1109    0.0000 </r>
       <r>   24.5404    0.0000 </r>
       <r>   29.9116    0.0000 </r>
       <r>   30.5138    0.0000 </r>
       <r>   33.4790    0.0000 </r>
       <r>   34.8474    0.0000 </r>
      </set>
      <set comment="kpoint 14">
       <r>    0.2905    1.0000 </r>
       <r>    4.0584    1.0000 </r>
       <r>    4.5418    1.0000 </r>
       <r>    4.6620    1.0000 </r>
       <r>    5.0484    1.0000 </r>
       <r>    5.4996    1.0000 </r>
       <r>   20.7287    0.0000 </r>
       <r>   24.9489    0.0000 </r>
       <r>   31.6085    0.0000 </r>
       <r>   33.1790    0.0000 </r>
       <r>   33.7895    0.0000 </r>
       <r>   34.1352    0.0000 </r>
      </set>
      <set comment="kpoint 15">
       <r>   -0.9087    1.0000 </r>
       <r>    4.2027    1.0000 </r>
       <r>    4.5473    1.0000 </r>
       <r>    4.5562    1.0000 </r>
       <r>    5.0607    1.0000 </r>
       <r>    5.2723    1.0000 </r>
       <r>   25.4894    0.0000 </r>
       <r>   26.2701    0.0000 </r>
       <r>   31.9854    0.0000 </r>
       <r>   33.6558    0.0000 </r>
       <r>   34.6311    0.0000 </r>
       <r>   35.3045    0.0000 </r>
      </set>
      <set comment="kpoint 16">
       <r>   -0.0183    1.0000 </r>
       <r>    3.9111    1.0000 </r>
       <r>    4.8174    1.0000 </r>
       <r>    4.8235    1.0000 </r>
       <r>    4.8235    1.0000 </r>
       <r>    5.3840    1.0000 </r>
       <r>   25.8044    0.0000 </r>
       <r>   25.8044    0.0000 </r>
       <r>   26.8189    0.0000 </r>
       <r>   27.8909    0.0000 </r>
       <r>   30.7884    0.0000 </r>
       <r>   41.7960    0.0000 </r>
      </set>
      <set comment="kpoint 17">
       <r>    1.0755    1.0000 </r>
       <r>    3.7295    1.0000 </r>
       <r>    4.5740    1.0000 </r>
       <r>    4.9476    1.0000 </r>
       <r>    5.2860    1.0000 </r>
       <r>    5.5193    1.0000 </r>
       <r>   21.3962    0.0000 </r>
       <r>   24.5448    0.0000 </r>
       <r>   25.7511    0.0000 </r>
       <r>   27.4182    0.0000 </r>
       <r>   31.1495    0.0000 </r>
       <r>   41.2861    0.0000 </r>
      </set>
      <set comment="kpoint 18">
       <r>    2.3105    1.0000 </r>
       <r>    3.6959    1.0000 </r>
       <r>    4.3616    1.0000 </r>
       <r>    4.9019    1.0000 </r>
       <r>    5.7161    1.0000 </r>
       <r>    6.2364    1.0000 </r>
       <r>   16.8120    0.0000 </r>
       <r>   23.4914    0.0000 </r>
       <r>   24.0665    0.0000 </r>
       <r>   27.1297    0.0000 </r>
       <r>   34.6925    0.0000 </r>
       <r>   40.1480    0.0000 </r>
      </set>
      <set comment="kpoint 19">
       <r>    2.9314    1.0000 </r>
       <r>    3.8422    1.0000 </r>
       <r>    4.3785    1.0000 </r>
       <r>    4.8089    1.0000 </r>
       <r>    5.7780    1.0000 </r>
       <r>    8.0509    0.0000 </r>
       <r>   12.8958    0.0000 </r>
       <r>   21.6372    0.0000 </r>
       <r>   24.4453    0.0000 </r>
       <r>   27.1752    0.0000 </r>
       <r>   38.4059    0.0000 </r>
       <r>   38.5067    0.0000 </r>
      </set>
      <set comment="kpoint 20">
       <r>    3.0326    1.0000 </r>
       <r>    3.9404    1.0000 </r>
       <r>    4.4069    1.0000 </r>
       <r>    4.7570    1.0000 </r>
       <r>    5.6215    1.0000 </r>
       <r>    8.8157    0.0000 </r>
       <r>   11.9189    0.0000 </r>
       <r>   20.4018    0.0000 </r>
       <r>   25.6886    0.0000 </r>
       <r>   27.7013    0.0000 </r>
       <r>   37.4252    0.0000 </r>
       <r>   38.0825    0.0000 </r>
      </set>
      <set comment="kpoint 21">
       <r>    2.7082    1.0000 </r>
       <r>    4.0331    1.0000 </r>
       <r>    4.1414    1.0000 </r>
       <r>    4.7834    1.0000 </r>
       <r>    5.3022    1.0000 </r>
       <r>    7.0368    1.0000 </r>
       <r>   15.4468    0.0000 </r>
       <r>   19.8681    0.0000 </r>
       <r>   27.7101    0.0000 </r>
       <r>   28.8118    0.0000 </r>
       <r>   36.9084    0.0000 </r>
       <r>   36.9366    0.0000 </r>
      </set>
      <set comment="kpoint 22">
       <r>    1.5405    1.0000 </r>
       <r>    3.9157    1.0000 </r>
       <r>    4.3829    1.0000 </r>
       <r>    4.8732    1.0000 </r>
       <r>    4.9589    1.0000 </r>
       <r>    6.0483    1.0000 </r>
       <r>   19.5630    0.0000 </r>
       <r>   20.3459    0.0000 </r>
       <r>   30.3590    0.0000 </r>
       <r>   30.5041    0.0000 </r>
       <r>   35.0471    0.0000 </r>
       <r>   36.9287    0.0000 </r>
      </set>
      <set comment="kpoint 23">
       <r>    1.7560    1.0000 </r>
       <r>    3.4925    1.0000 </r>
       <r>    4.9385    1.0000 </r>
       <r>    5.2746    1.0000 </r>
       <r>    5.2746    1.0000 </r>
       <r>    5.5494    1.0000 </r>
       <r>   22.7320    0.0000 </r>
       <r>   22.9350    0.0000 </r>
       <r>   22.9350    0.0000 </r>
       <r>   25.6327    0.0000 </r>
       <r>   28.3050    0.0000 </r>
       <r>   46.0415    0.0000 </r>
      </set>
      <set comment="kpoint 24">
       <r>    2.4743    1.0000 </r>
       <r>    3.3597    1.0000 </r>
       <r>    4.9137    1.0000 </r>
       <r>    5.3336    1.0000 </r>
       <r>    5.7214    1.0000 </r>
       <r>    6.3288    1.0000 </r>
       <r>   19.3642    0.0000 </r>
       <r>   20.1624    0.0000 </r>
       <r>   22.1408    0.0000 </r>
       <r>   26.1880    0.0000 </r>
       <r>   29.7826    0.0000 </r>
       <r>   44.6057    0.0000 </r>
      </set>
      <set comment="kpoint 25">
       <r>    2.9663    1.0000 </r>
       <r>    3.3908    1.0000 </r>
       <r>    4.6839    1.0000 </r>
       <r>    5.2428    1.0000 </r>
       <r>    5.8048    1.0000 </r>
       <r>    8.4690    0.0000 </r>
       <r>   15.2800    0.0000 </r>
       <r>   18.0998    0.0000 </r>
       <r>   22.2731    0.0000 </r>
       <r>   26.3893    0.0000 </r>
       <r>   33.7546    0.0000 </r>
       <r>   42.7406    0.0000 </r>
      </set>
      <set comment="kpoint 26">
       <r>    3.2931    1.0000 </r>
       <r>    3.5298    1.0000 </r>
       <r>    4.4018    1.0000 </r>
       <r>    5.1333    1.0000 </r>
       <r>    5.6654    1.0000 </r>
       <r>   11.0660    0.0000 </r>
       <r>   12.0824    0.0000 </r>
       <r>   16.7129    0.0000 </r>
       <r>   23.3365    0.0000 </r>
       <r>   26.7895    0.0000 </r>
       <r>   38.5810    0.0000 </r>
       <r>   41.3257    0.0000 </r>
      </set>
      <set comment="kpoint 27">
       <r>    3.3657    1.0000 </r>
       <r>    3.7820    1.0000 </r>
       <r>    4.0654    1.0000 </r>
       <r>    5.0036    1.0000 </r>
       <r>    5.4221    1.0000 </r>
       <r>    8.8876    0.0000 </r>
       <r>   14.6334    0.0000 </r>
       <r>   16.5000    0.0000 </r>
       <r>   25.2104    0.0000 </r>
       <r>   27.5943    0.0000 </r>
       <r>   39.8733    0.0000 </r>
       <r>   39.9707    0.0000 </r>
      </set>
      <set comment="kpoint 28">
       <r>    2.5491    1.0000 </r>
       <r>    3.1641    1.0000 </r>
       <r>    5.6850    1.0000 </r>
       <r>    5.7043    1.0000 </r>
       <r>    5.7043    1.0000 </r>
       <r>    6.8185    1.0000 </r>
       <r>   17.4030    0.0000 </r>
       <r>   21.0048    0.0000 </r>
       <r>   21.0048    0.0000 </r>
       <r>   24.9718    0.0000 </r>
       <r>   27.5322    0.0000 </r>
       <r>   48.5048    0.0000 </r>
      </set>
      <set comment="kpoint 29">
       <r>    2.7057    1.0000 </r>
       <r>    3.1357    1.0000 </r>
       <r>    5.4747    1.0000 </r>
       <r>    5.6162    1.0000 </r>
       <r>    5.8418    1.0000 </r>
       <r>    8.7347    0.0000 </r>
       <r>   15.4411    0.0000 </r>
       <r>   18.2469    0.0000 </r>
       <r>   20.8264    0.0000 </r>
       <r>   25.7099    0.0000 </r>
       <r>   29.2066    0.0000 </r>
       <r>   46.9182    0.0000 </r>
      </set>
      <set comment="kpoint 30">
       <r>    2.9882    1.0000 </r>
       <r>    3.2804    1.0000 </r>
       <r>    4.9356    1.0000 </r>
       <r>    5.4550    1.0000 </r>
       <r>    5.7653    1.0000 </r>
       <r>   10.8196    0.0000 </r>
       <r>   14.5025    0.0000 </r>
       <r>   14.9701    0.0000 </r>
       <r>   21.6460    0.0000 </r>
       <r>   26.1821    0.0000 </r>
       <r>   33.4525    0.0000 </r>
       <r>   44.6348    0.0000 </r>
      </set>
      <set comment="kpoint 31">
       <r>    2.5965    1.0000 </r>
       <r>    3.0410    1.0000 </r>
       <r>    5.7372    1.0000 </r>
       <r>    5.8884    1.0000 </r>
       <r>    5.8884    1.0000 </r>
       <r>    8.8791    0.0000 </r>
       <r>   14.3609    0.0000 </r>
       <r>   20.3124    0.0000 </r>
       <r>   20.3124    0.0000 </r>
       <r>   24.7619    0.0000 </r>
       <r>   27.3359    0.0000 </r>
       <r>   49.1015    0.0000 </r>
      </set>
      <set comment="kpoint 32">
       <r>    0.4021    1.0000 </r>
       <r>    3.9311    1.0000 </r>
       <r>    4.5514    1.0000 </r>
       <r>    4.8339    1.0000 </r>
       <r>    5.0006    1.0000 </r>
       <r>    5.5174    1.0000 </r>
       <r>   22.5970    0.0000 </r>
       <r>   23.2092    0.0000 </r>
       <r>   29.2371    0.0000 </r>
       <r>   30.6763    0.0000 </r>
       <r>   32.8938    0.0000 </r>
       <r>   37.5251    0.0000 </r>
      </set>
      <set comment="kpoint 33">
       <r>    1.7581    1.0000 </r>
       <r>    3.8551    1.0000 </r>
       <r>    4.3391    1.0000 </r>
       <r>    4.8403    1.0000 </r>
       <r>    5.2815    1.0000 </r>
       <r>    6.0238    1.0000 </r>
       <r>   18.0725    0.0000 </r>
       <r>   22.3299    0.0000 </r>
       <r>   26.7475    0.0000 </r>
       <r>   30.7864    0.0000 </r>
       <r>   34.5419    0.0000 </r>
       <r>   36.6922    0.0000 </r>
      </set>
      <set comment="kpoint 34">
       <r>    2.7198    1.0000 </r>
       <r>    4.0423    1.0000 </r>
       <r>    4.2669    1.0000 </r>
       <r>    4.7408    1.0000 </r>
       <r>    5.6043    1.0000 </r>
       <r>    7.1660    1.0000 </r>
       <r>   13.8866    0.0000 </r>
       <r>   22.3821    0.0000 </r>
       <r>   24.6821    0.0000 </r>
       <r>   30.2608    0.0000 </r>
       <r>   34.3486    0.0000 </r>
       <r>   39.1019    0.0000 </r>
      </set>
      <set comment="kpoint 35">
       <r>    2.9102    1.0000 </r>
       <r>    4.0065    1.0000 </r>
       <r>    4.5339    1.0000 </r>
       <r>    4.6818    1.0000 </r>
       <r>    5.7096    1.0000 </r>
       <r>    8.6759    0.0000 </r>
       <r>   11.3325    0.0000 </r>
       <r>   22.9602    0.0000 </r>
       <r>   23.4144    0.0000 </r>
       <r>   30.0354    0.0000 </r>
       <r>   34.0935    0.0000 </r>
       <r>   39.4145    0.0000 </r>
      </set>
      <set comment="kpoint 36">
       <r>    2.0870    1.0000 </r>
       <r>    3.5717    1.0000 </r>
       <r>    4.4498    1.0000 </r>
       <r>    5.2733    1.0000 </r>
       <r>    5.3319    1.0000 </r>
       <r>    6.0505    1.0000 </r>
       <r>   20.2593    0.0000 </r>
       <r>   20.8286    0.0000 </r>
       <r>   23.2023    0.0000 </r>
       <r>   28.9574    0.0000 </r>
       <r>   31.0921    0.0000 </r>
       <r>   40.1380    0.0000 </r>
      </set>
      <set comment="kpoint 37">
       <r>    2.9284    1.0000 </r>
       <r>    3.5714    1.0000 </r>
       <r>    4.2748    1.0000 </r>
       <r>    5.1727    1.0000 </r>
       <r>    5.6401    1.0000 </r>
       <r>    7.4635    0.0000 </r>
       <r>   16.1467    0.0000 </r>
       <r>   20.4000    0.0000 </r>
       <r>   20.9470    0.0000 </r>
       <r>   29.5195    0.0000 </r>
       <r>   34.1403    0.0000 </r>
       <r>   38.5342    0.0000 </r>
      </set>
      <set comment="kpoint 38">
       <r>    3.2918    1.0000 </r>
       <r>    3.6363    1.0000 </r>
       <r>    4.2387    1.0000 </r>
       <r>    5.0310    1.0000 </r>
       <r>    5.7202    1.0000 </r>
       <r>    9.8304    0.0000 </r>
       <r>   12.4829    0.0000 </r>
       <r>   19.1984    0.0000 </r>
       <r>   21.0605    0.0000 </r>
       <r>   29.8669    0.0000 </r>
       <r>   36.3696    0.0000 </r>
       <r>   39.5293    0.0000 </r>
      </set>
      <set comment="kpoint 39">
       <r>    3.3565    1.0000 </r>
       <r>    3.7376    1.0000 </r>
       <r>    4.0727    1.0000 </r>
       <r>    4.9996    1.0000 </r>
       <r>    5.5738    1.0000 </r>
       <r>    9.0965    0.0000 </r>
       <r>   13.5608    0.0000 </r>
       <r>   18.1864    0.0000 </r>
       <r>   22.3789    0.0000 </r>
       <r>   30.7310    0.0000 </r>
       <r>   35.5863    0.0000 </r>
       <r>   40.7639    0.0000 </r>
      </set>
      <set comment="kpoint 40">
       <r>    2.8522    1.0000 </r>
       <r>    3.7913    1.0000 </r>
       <r>    4.0536    1.0000 </r>
       <r>    5.0549    1.0000 </r>
       <r>    5.2950    1.0000 </r>
       <r>    7.1325    1.0000 </r>
       <r>   17.1660    0.0000 </r>
       <r>   18.2664    0.0000 </r>
       <r>   24.3135    0.0000 </r>
       <r>   32.1275    0.0000 </r>
       <r>   34.0199    0.0000 </r>
       <r>   37.7578    0.0000 </r>
      </set>
      <set comment="kpoint 41">
       <r>    2.7914    1.0000 </r>
       <r>    3.2837    1.0000 </r>
       <r>    4.9193    1.0000 </r>
       <r>    5.5725    1.0000 </r>
       <r>    5.7025    1.0000 </r>
       <r>    7.8374    0.0000 </r>
       <r>   17.7343    0.0000 </r>
       <r>   18.6542    0.0000 </r>
       <r>   19.2994    0.0000 </r>
       <r>   27.9346    0.0000 </r>
       <r>   30.2094    0.0000 </r>
       <r>   42.8932    0.0000 </r>
      </set>
      <set comment="kpoint 42">
       <r>    3.0779    1.0000 </r>
       <r>    3.3815    1.0000 </r>
       <r>    4.6405    1.0000 </r>
       <r>    5.3733    1.0000 </r>
       <r>    5.8099    1.0000 </r>
       <r>   10.2600    0.0000 </r>
       <r>   15.0603    0.0000 </r>
       <r>   16.0416    0.0000 </r>
       <r>   19.4317    0.0000 </r>
       <r>   28.9176    0.0000 </r>
       <r>   33.7407    0.0000 </r>
       <r>   40.9897    0.0000 </r>
      </set>
      <set comment="kpoint 43">
       <r>    3.3939    1.0000 </r>
       <r>    3.5417    1.0000 </r>
       <r>    4.2461    1.0000 </r>
       <r>    5.1838    1.0000 </r>
       <r>    5.7053    1.0000 </r>
       <r>   11.7340    0.0000 </r>
       <r>   12.8542    0.0000 </r>
       <r>   15.5378    0.0000 </r>
       <r>   20.5893    0.0000 </r>
       <r>   29.6918    0.0000 </r>
       <r>   38.5753    0.0000 </r>
       <r>   38.7493    0.0000 </r>
      </set>
      <set comment="kpoint 44">
       <r>    2.8063    1.0000 </r>
       <r>    3.1750    1.0000 </r>
       <r>    5.2433    1.0000 </r>
       <r>    5.5790    1.0000 </r>
       <r>    5.8887    1.0000 </r>
       <r>    9.9544    0.0000 </r>
       <r>   14.5456    0.0000 </r>
       <r>   18.0671    0.0000 </r>
       <r>   18.7306    0.0000 </r>
       <r>   27.6032    0.0000 </r>
       <r>   29.9567    0.0000 </r>
       <r>   44.8461    0.0000 </r>
      </set>
      <set comment="kpoint 45">
       <r>    3.3128    1.0000 </r>
       <r>    3.6479    1.0000 </r>
       <r>    4.0656    1.0000 </r>
       <r>    5.2423    1.0000 </r>
       <r>    5.6992    1.0000 </r>
       <r>    9.5357    0.0000 </r>
       <r>   15.5421    0.0000 </r>
       <r>   17.0089    0.0000 </r>
       <r>   18.8201    0.0000 </r>
       <r>   32.9048    0.0000 </r>
       <r>   34.0570    0.0000 </r>
       <r>   37.6202    0.0000 </r>
      </set>
      <set comment="kpoint 46">
       <r>    3.4060    1.0000 </r>
       <r>    3.7550    1.0000 </r>
       <r>    3.9775    1.0000 </r>
       <r>    5.1483    1.0000 </r>
       <r>    5.8002    1.0000 </r>
       <r>   12.1233    0.0000 </r>
       <r>   12.7126    0.0000 </r>
       <r>   17.2522    0.0000 </r>
       <r>   17.4534    0.0000 </r>
       <r>   33.4592    0.0000 </r>
       <r>   35.1182    0.0000 </r>
       <r>   38.7099    0.0000 </r>
      </set>
      <set comment="kpoint 47">
       <r>    3.2294    1.0000 </r>
       <r>    3.5880    1.0000 </r>
       <r>    4.2962    1.0000 </r>
       <r>    5.2383    1.0000 </r>
       <r>    5.8891    1.0000 </r>
       <r>   12.1752    0.0000 </r>
       <r>   14.9473    0.0000 </r>
       <r>   15.1848    0.0000 </r>
       <r>   16.6158    0.0000 </r>
       <r>   32.5288    0.0000 </r>
       <r>   34.8879    0.0000 </r>
       <r>   38.3559    0.0000 </r>
      </set>
     </set>
    </set>
   </array>
  </eigenvalues>
  <separator name="orbital magnetization" >
   <v name="MAGDIPOLOUT">      0.00000000      0.00000000      0.00000000</v>
  </separator>
  <dos>
   <i name="efermi">      7.25648893 </i>
   <total>
    <array>
     <dimension dim="1">gridpoints</dimension>
     <dimension dim="2">spin</dimension>
     <field>energy</field>
     <field>total</field>
     <field>integrated</field>
     <set>
      <set comment="spin 1">
       <r>    -4.3968     0.0000     0.0000 </r>
       <r>    -4.2100     0.0000     0.0000 </r>
       <r>    -4.0231     0.0000     0.0000 </r>
       <r>    -3.8363     0.0000     0.0000 </r>
       <r>    -3.6495     0.0000     0.0000 </r>
       <r>    -3.4627     0.0000     0.0000 </r>
       <r>    -3.2759     0.0000     0.0000 </r>
       <r>    -3.0890     0.0000     0.0000 </r>
       <r>    -2.9022     0.0000     0.0000 </r>
       <r>    -2.7154     0.0000     0.0000 </r>
       <r>    -2.5286     0.0000     0.0000 </r>
       <r>    -2.3418     0.0000     0.0000 </r>
       <r>    -2.1549     0.0000     0.0000 </r>
       <r>    -1.9681     0.0000     0.0000 </r>
       <r>    -1.7813     0.0107     0.0020 </r>
       <r>    -1.5945     0.0000     0.0020 </r>
       <r>    -1.4077     0.0889     0.0186 </r>
       <r>    -1.2208     0.0610     0.0300 </r>
       <r>    -1.0340     0.0000     0.0300 </r>
       <r>    -0.8472     0.1282     0.0540 </r>
       <r>    -0.6604     0.0000     0.0540 </r>
       <r>    -0.4736     0.2830     0.1069 </r>
       <r>    -0.2868     0.0596     0.1180 </r>
       <r>    -0.0999     0.0000     0.1180 </r>
       <r>     0.0869     0.0642     0.1300 </r>
       <r>     0.2737     0.0551     0.1403 </r>
       <r>     0.4605     0.4580     0.2259 </r>
       <r>     0.6473     0.0000     0.2260 </r>
       <r>     0.8342     0.2558     0.2738 </r>
       <r>     1.0210     0.0597     0.2852 </r>
       <r>     1.2078     0.2829     0.3380 </r>
       <r>     1.3946     0.0000     0.3380 </r>
       <r>     1.5814     0.1250     0.3614 </r>
       <r>     1.7683     0.6411     0.4811 </r>
       <r>     1.9551     0.1974     0.5180 </r>
       <r>     2.1419     0.5628     0.6231 </r>
       <r>     2.3287     0.2423     0.6686 </r>
       <r>     2.5155     0.5740     0.7759 </r>
       <r>     2.7024     0.7045     0.9075 </r>
       <r>     2.8892     1.4053     1.1700 </r>
       <r>     3.0760     1.8813     1.5215 </r>
       <r>     3.2628     0.9860     1.7057 </r>
       <r>     3.4496     3.4645     2.3529 </r>
       <r>     3.6365     1.8137     2.6921 </r>
       <r>     3.8233     2.1692     3.0976 </r>
       <r>     4.0101     2.0279     3.4765 </r>
       <r>     4.1969     3.1401     4.0631 </r>
       <r>     4.3837     4.3297     4.8722 </r>
       <r>     4.5706     4.2094     5.6586 </r>
       <r>     4.7574     3.1385     6.2452 </r>
       <r>     4.9442     3.1516     6.8340 </r>
       <r>     5.1310     3.0897     7.4112 </r>
       <r>     5.3178     4.6024     8.2710 </r>
       <r>     5.5046     2.6223     8.7610 </r>
       <r>     5.6915     4.2974     9.5638 </r>
       <r>     5.8783     4.0630    10.3229 </r>
       <r>     6.0651     1.5394    10.6106 </r>
       <r>     6.2519     0.3013    10.6669 </r>
       <r>     6.4387     0.3528    10.7328 </r>
       <r>     6.6256     0.0064    10.7340 </r>
       <r>     6.8124     0.0274    10.7391 </r>
       <r>     6.9992     0.3036    10.7958 </r>
       <r>     7.1860     0.9278    10.9692 </r>
       <r>     7.3728     0.3456    11.0340 </r>
       <r>     7.5597     0.5139    11.1300 </r>
       <r>     7.7465     0.0000    11.1300 </r>
       <r>     7.9333     0.2569    11.1780 </r>
       <r>     8.1201     0.2568    11.2260 </r>
       <r>     8.3069     0.0000    11.2260 </r>
       <r>     8.4938     0.2257    11.2682 </r>
       <r>     8.6806     0.1834    11.3024 </r>
       <r>     8.8674     0.6479    11.4235 </r>
       <r>     9.0542     0.1432    11.4502 </r>
       <r>     9.2410     0.5020    11.5440 </r>
       <r>     9.4279     0.0000    11.5440 </r>
       <r>     9.6147     0.2569    11.5920 </r>
       <r>     9.8015     0.0446    11.6003 </r>
       <r>     9.9883     0.5907    11.7107 </r>
       <r>    10.1751     0.0070    11.7120 </r>
       <r>    10.3620     0.5138    11.8080 </r>
       <r>    10.5488     0.0000    11.8080 </r>
       <r>    10.7356     0.0000    11.8080 </r>
       <r>    10.9224     0.1285    11.8320 </r>
       <r>    11.1092     0.2944    11.8870 </r>
       <r>    11.2961     0.0163    11.8901 </r>
       <r>    11.4829     0.4448    11.9732 </r>
       <r>    11.6697     0.0584    11.9841 </r>
       <r>    11.8565     0.2570    12.0321 </r>
       <r>    12.0433     0.2650    12.0816 </r>
       <r>    12.2301     0.6333    12.1999 </r>
       <r>    12.4170     0.2574    12.2481 </r>
       <r>    12.6038     0.5134    12.3440 </r>
       <r>    12.7906     0.2573    12.3921 </r>
       <r>    12.9774     0.5135    12.4880 </r>
       <r>    13.1642     0.0001    12.4880 </r>
       <r>    13.3511     0.0855    12.5040 </r>
       <r>    13.5379     0.0719    12.5174 </r>
       <r>    13.7247     0.4419    12.6000 </r>
       <r>    13.9115     0.4523    12.6845 </r>
       <r>    14.0983     0.0616    12.6960 </r>
       <r>    14.2852     0.0000    12.6960 </r>
       <r>    14.4720     0.0418    12.7038 </r>
       <r>    14.6588     0.3619    12.7714 </r>
       <r>    14.8456     0.2707    12.8220 </r>
       <r>    15.0324     0.3054    12.8791 </r>
       <r>    15.2193     0.5874    12.9888 </r>
       <r>    15.4061     0.2828    13.0417 </r>
       <r>    15.5929     1.0047    13.2294 </r>
       <r>    15.7797     0.0021    13.2300 </r>
       <r>    15.9665     0.0001    13.2300 </r>
       <r>    16.1534     1.0853    13.4328 </r>
       <r>    16.3402     0.1993    13.4700 </r>
       <r>    16.5270     0.1154    13.4916 </r>
       <r>    16.7138     0.2745    13.5428 </r>
       <r>    16.9006     0.3809    13.6140 </r>
       <r>    17.0875     0.2569    13.6620 </r>
       <r>    17.2743     0.4760    13.7509 </r>
       <r>    17.4611     0.3522    13.8167 </r>
       <r>    17.6479     0.0923    13.8340 </r>
       <r>    17.8347     0.2569    13.8820 </r>
       <r>    18.0215     0.0063    13.8832 </r>
       <r>    18.2084     1.3391    14.1333 </r>
       <r>    18.3952     0.5816    14.2420 </r>
       <r>    18.5820     0.0001    14.2420 </r>
       <r>    18.7688     0.3827    14.3135 </r>
       <r>    18.9556     0.2595    14.3620 </r>
       <r>    19.1425     0.2264    14.4043 </r>
       <r>    19.3293     0.7937    14.5526 </r>
       <r>    19.5161     0.7802    14.6983 </r>
       <r>    19.7029     0.1267    14.7220 </r>
       <r>    19.8897     0.2175    14.7626 </r>
       <r>    20.0766     0.0394    14.7700 </r>
       <r>    20.2634     0.4056    14.8458 </r>
       <r>    20.4502     1.0642    15.0446 </r>
       <r>    20.6370     0.2613    15.0934 </r>
       <r>    20.8238     0.4818    15.1834 </r>
       <r>    21.0107     0.8884    15.3494 </r>
       <r>    21.1975     0.5592    15.4540 </r>
       <r>    21.3843     0.0737    15.4678 </r>
       <r>    21.5711     0.1835    15.5020 </r>
       <r>    21.7579     0.3851    15.5740 </r>
       <r>    21.9448     0.0000    15.5740 </r>
       <r>    22.1316     0.1272    15.5978 </r>
       <r>    22.3184     0.6209    15.7138 </r>
       <r>    22.5052     1.3930    15.9740 </r>
       <r>    22.6920     0.2589    16.0224 </r>
       <r>    22.8789     0.0628    16.0341 </r>
       <r>    23.0657     0.3849    16.1060 </r>
       <r>    23.2525     0.5062    16.2006 </r>
       <r>    23.4393     0.4924    16.2926 </r>
       <r>    23.6261     0.2860    16.3460 </r>
       <r>    23.8129     0.0000    16.3460 </r>
       <r>    23.9998     0.0003    16.3461 </r>
       <r>    24.1866     0.5135    16.4420 </r>
       <r>    24.3734     0.2564    16.4899 </r>
       <r>    24.5602     0.6656    16.6144 </r>
       <r>    24.7470     0.6631    16.7383 </r>
       <r>    24.9339     0.3081    16.7959 </r>
       <r>    25.1207     0.2573    16.8440 </r>
       <r>    25.3075     0.1285    16.8680 </r>
       <r>    25.4943     0.0759    16.8822 </r>
       <r>    25.6811     0.4599    16.9681 </r>
       <r>    25.8680     0.8129    17.1200 </r>
       <r>    26.0548     0.0000    17.1200 </r>
       <r>    26.2416     0.3952    17.1938 </r>
       <r>    26.4284     0.3655    17.2624 </r>
       <r>    26.6152     0.2525    17.3096 </r>
       <r>    26.8021     0.7552    17.4507 </r>
       <r>    26.9889     0.5255    17.5494 </r>
       <r>    27.1757     0.7191    17.6837 </r>
       <r>    27.3625     0.2455    17.7296 </r>
       <r>    27.5493     0.3129    17.7880 </r>
       <r>    27.7362     0.7812    17.9340 </r>
       <r>    27.9230     0.5709    18.0406 </r>
       <r>    28.1098     0.2667    18.0904 </r>
       <r>    28.2966     0.2828    18.1433 </r>
       <r>    28.4834     0.5864    18.2528 </r>
       <r>    28.6703     0.4360    18.3343 </r>
       <r>    28.8571     0.4872    18.4254 </r>
       <r>    29.0439     0.7739    18.5700 </r>
       <r>    29.2307     0.4386    18.6519 </r>
       <r>    29.4175     0.5462    18.7540 </r>
       <r>    29.6044     0.6017    18.8664 </r>
       <r>    29.7912     0.5103    18.9618 </r>
       <r>    29.9780     0.9779    19.1444 </r>
       <r>    30.1648     0.5963    19.2559 </r>
       <r>    30.3516     0.9848    19.4399 </r>
       <r>    30.5384     0.5244    19.5378 </r>
       <r>    30.7253     0.5221    19.6354 </r>
       <r>    30.9121     0.9454    19.8120 </r>
       <r>    31.0989     0.1631    19.8425 </r>
       <r>    31.2857     0.3507    19.9080 </r>
       <r>    31.4725     0.1669    19.9392 </r>
       <r>    31.6594     0.2592    19.9876 </r>
       <r>    31.8462     0.1799    20.0212 </r>
       <r>    32.0330     0.2060    20.0597 </r>
       <r>    32.2198     0.3365    20.1226 </r>
       <r>    32.4066     0.0397    20.1300 </r>
       <r>    32.5935     0.1283    20.1540 </r>
       <r>    32.7803     0.0460    20.1626 </r>
       <r>    32.9671     0.6386    20.2819 </r>
       <r>    33.1539     0.0306    20.2877 </r>
       <r>    33.3407     0.2264    20.3300 </r>
       <r>    33.5276     0.6393    20.4494 </r>
       <r>    33.7144     0.2419    20.4947 </r>
       <r>    33.9012     1.4306    20.7620 </r>
       <r>    34.0880     0.6044    20.8749 </r>
       <r>    34.2748     0.9371    21.0500 </r>
       <r>    34.4617     0.6423    21.1700 </r>
       <r>    34.6485     0.7800    21.3157 </r>
       <r>    34.8353     0.5127    21.4115 </r>
       <r>    35.0221     0.3937    21.4851 </r>
       <r>    35.2089     1.0755    21.6860 </r>
       <r>    35.3958     0.3854    21.7580 </r>
       <r>    35.5826     0.2214    21.7994 </r>
       <r>    35.7694     0.2924    21.8540 </r>
       <r>    35.9562     0.0000    21.8540 </r>
       <r>    36.1430     0.2478    21.9003 </r>
       <r>    36.3298     0.1961    21.9369 </r>
       <r>    36.5167     0.4982    22.0300 </r>
       <r>    36.7035     0.5113    22.1255 </r>
       <r>    36.8903     0.5531    22.2289 </r>
       <r>    37.0771     0.5883    22.3389 </r>
       <r>    37.2639     0.3164    22.3980 </r>
       <r>    37.4508     0.2276    22.4405 </r>
       <r>    37.6376     0.4902    22.5321 </r>
       <r>    37.8244     0.3097    22.5900 </r>
       <r>    38.0112     0.0001    22.5900 </r>
       <r>    38.1980     0.2568    22.6380 </r>
       <r>    38.3849     0.1586    22.6676 </r>
       <r>    38.5717     1.1730    22.8868 </r>
       <r>    38.7585     0.7638    23.0295 </r>
       <r>    38.9453     0.0882    23.0460 </r>
       <r>    39.1321     0.4744    23.1346 </r>
       <r>    39.3190     0.0395    23.1420 </r>
       <r>    39.5058     0.3257    23.2029 </r>
       <r>    39.6926     0.4451    23.2860 </r>
       <r>    39.8794     0.0788    23.3007 </r>
       <r>    40.0662     0.1782    23.3340 </r>
       <r>    40.2531     0.5138    23.4300 </r>
       <r>    40.4399     0.0000    23.4300 </r>
       <r>    40.6267     0.0000    23.4300 </r>
       <r>    40.8135     0.5089    23.5251 </r>
       <r>    41.0003     0.3605    23.5924 </r>
       <r>    41.1872     0.1584    23.6220 </r>
       <r>    41.3740     0.5109    23.7175 </r>
       <r>    41.5608     0.0029    23.7180 </r>
       <r>    41.7476     0.0007    23.7181 </r>
       <r>    41.9344     0.0635    23.7300 </r>
       <r>    42.1212     0.0000    23.7300 </r>
       <r>    42.3081     0.0000    23.7300 </r>
       <r>    42.4949     0.0000    23.7300 </r>
       <r>    42.6817     0.0007    23.7301 </r>
       <r>    42.8685     0.2878    23.7839 </r>
       <r>    43.0553     0.2254    23.8260 </r>
       <r>    43.2422     0.0000    23.8260 </r>
       <r>    43.4290     0.0000    23.8260 </r>
       <r>    43.6158     0.0000    23.8260 </r>
       <r>    43.8026     0.0000    23.8260 </r>
       <r>    43.9894     0.0000    23.8260 </r>
       <r>    44.1763     0.0000    23.8260 </r>
       <r>    44.3631     0.0000    23.8260 </r>
       <r>    44.5499     0.0011    23.8262 </r>
       <r>    44.7367     0.3843    23.8980 </r>
       <r>    44.9235     0.1284    23.9220 </r>
       <r>    45.1104     0.0000    23.9220 </r>
       <r>    45.2972     0.0000    23.9220 </r>
       <r>    45.4840     0.0000    23.9220 </r>
       <r>    45.6708     0.0000    23.9220 </r>
       <r>    45.8576     0.0000    23.9220 </r>
       <r>    46.0445     0.0357    23.9287 </r>
       <r>    46.2313     0.0286    23.9340 </r>
       <r>    46.4181     0.0000    23.9340 </r>
       <r>    46.6049     0.0000    23.9340 </r>
       <r>    46.7917     0.0000    23.9340 </r>
       <r>    46.9786     0.2564    23.9819 </r>
       <r>    47.1654     0.0000    23.9820 </r>
       <r>    47.3522     0.0000    23.9820 </r>
       <r>    47.5390     0.0000    23.9820 </r>
       <r>    47.7258     0.0000    23.9820 </r>
       <r>    47.9126     0.0000    23.9820 </r>
       <r>    48.0995     0.0000    23.9820 </r>
       <r>    48.2863     0.0000    23.9820 </r>
       <r>    48.4731     0.0043    23.9828 </r>
       <r>    48.6599     0.0599    23.9940 </r>
       <r>    48.8467     0.0000    23.9940 </r>
       <r>    49.0336     0.0000    23.9940 </r>
       <r>    49.2204     0.0321    24.0000 </r>
       <r>    49.4072     0.0000    24.0000 </r>
       <r>    49.5940     0.0000    24.0000 </r>
       <r>    49.7808     0.0000    24.0000 </r>
       <r>    49.9677     0.0000    24.0000 </r>
       <r>    50.1545     0.0000    24.0000 </r>
       <r>    50.3413     0.0000    24.0000 </r>
       <r>    50.5281     0.0000    24.0000 </r>
       <r>    50.7149     0.0000    24.0000 </r>
       <r>    50.9018     0.0000    24.0000 </r>
       <r>    51.0886     0.0000    24.0000 </r>
       <r>    51.2754     0.0000    24.0000 </r>
       <r>    51.4622     0.0000    24.0000 </r>
       <r>    51.6490     0.0000    24.0000 </r>
      </set>
     </set>
    </array>
   </total>
  </dos>
 </calculation>
 <structure name="finalpos" >
  <crystal>
   <varray name="basis" >
    <v>       0.00000000       1.81823508       1.81823508 </v>
    <v>       1.81823508      -0.00000000       1.81823508 </v>
    <v>       1.81823508       1.81823508       0.00000000 </v>
   </varray>
   <i name="volume">     12.02209321 </i>
   <varray name="rec_basis" >
    <v>      -0.27499194       0.27499194       0.27499194 </v>
    <v>       0.27499194      -0.27499194       0.27499194 </v>
    <v>       0.27499194       0.27499194      -0.27499194 </v>
   </varray>
  </crystal>
  <varray name="positions" >
   <v>       0.00000000      -0.00000000       0.00000000 </v>
  </varray>
 </structure>
</modeling>
