Cu FCC                                  
           1
     0.000000    1.809950    1.809950
     1.809950    0.000000    1.809950
     1.809950    1.809950    0.000000
   Cu
     1
Direct configuration=     1
   0.00000000  0.00000000  0.00000000
Cu FCC                                  
           1
     0.000000    1.822884    1.822884
     1.822884   -0.000000    1.822884
     1.822884    1.822884    0.000000
   Cu
     1
Direct configuration=     2
   0.00000000 -0.00000000  0.00000000
Cu FCC                                  
           1
     0.000000    1.818235    1.818235
     1.818235   -0.000000    1.818235
     1.818235    1.818235    0.000000
   Cu
     1
Direct configuration=     3
   0.00000000 -0.00000000  0.00000000
