   1   1   1   0
  0.1202557E+02  0.2571621E-09  0.2571621E-09  0.2571621E-09  0.5000000E-15
  1.000000000000000E-004
  CAR 
 Cu FCC                                  
    102.51962539     -6.82087902  301      7.38470648      1.00000000
     -6.821  0.0000E+00  0.0000E+00
     -6.456  0.0000E+00  0.0000E+00
     -6.092  0.0000E+00  0.0000E+00
     -5.727  0.0000E+00  0.0000E+00
     -5.363  0.0000E+00  0.0000E+00
     -4.999  0.0000E+00  0.0000E+00
     -4.634  0.0000E+00  0.0000E+00
     -4.270  0.0000E+00  0.0000E+00
     -3.905  0.0000E+00  0.0000E+00
     -3.541  0.0000E+00  0.0000E+00
     -3.176  0.0000E+00  0.0000E+00
     -2.812  0.0000E+00  0.0000E+00
     -2.447  0.0000E+00  0.0000E+00
     -2.083  0.0000E+00  0.0000E+00
     -1.718  0.6620E-02  0.2413E-02
     -1.354  0.3340E-01  0.1877E-01
     -0.989  0.4380E-01  0.4048E-01
     -0.625  0.4984E-01  0.7009E-01
     -0.260  0.6289E-01  0.1073E+00
      0.104  0.8101E-01  0.1509E+00
      0.468  0.9683E-01  0.2004E+00
      0.833  0.1137E+00  0.2556E+00
      1.197  0.1221E+00  0.3182E+00
      1.562  0.1278E+00  0.3924E+00
      1.926  0.1727E+00  0.4885E+00
      2.291  0.2698E+00  0.6298E+00
      2.655  0.5648E+00  0.9203E+00
      3.020  0.8201E+00  0.1374E+01
      3.384  0.1527E+01  0.2147E+01
      3.749  0.1395E+01  0.2946E+01
      4.113  0.1914E+01  0.3895E+01
      4.478  0.2627E+01  0.5240E+01
      4.842  0.1947E+01  0.6556E+01
      5.207  0.2516E+01  0.7805E+01
      5.571  0.2184E+01  0.9043E+01
      5.936  0.2301E+01  0.1048E+02
      6.300  0.2106E+00  0.1063E+02
      6.664  0.2332E+00  0.1077E+02
      7.029  0.2020E+00  0.1089E+02
      7.393  0.1853E+00  0.1100E+02
      7.758  0.2396E+00  0.1112E+02
      8.122  0.1595E+00  0.1121E+02
      8.487  0.1673E+00  0.1132E+02
      8.851  0.1369E+00  0.1140E+02
      9.216  0.1696E+00  0.1151E+02
      9.580  0.1407E+00  0.1159E+02
      9.945  0.1546E+00  0.1167E+02
     10.309  0.1185E+00  0.1174E+02
     10.674  0.1146E+00  0.1181E+02
     11.038  0.1066E+00  0.1187E+02
     11.403  0.1742E+00  0.1196E+02
     11.767  0.2110E+00  0.1207E+02
     12.131  0.1873E+00  0.1217E+02
     12.496  0.1958E+00  0.1228E+02
     12.860  0.1589E+00  0.1238E+02
     13.225  0.1588E+00  0.1247E+02
     13.589  0.1497E+00  0.1257E+02
     13.954  0.1669E+00  0.1265E+02
     14.318  0.1648E+00  0.1273E+02
     14.683  0.1742E+00  0.1283E+02
     15.047  0.1959E+00  0.1295E+02
     15.412  0.2304E+00  0.1308E+02
     15.776  0.2196E+00  0.1320E+02
     16.141  0.2887E+00  0.1334E+02
     16.505  0.2075E+00  0.1346E+02
     16.870  0.2196E+00  0.1359E+02
     17.234  0.2418E+00  0.1373E+02
     17.599  0.2626E+00  0.1388E+02
     17.963  0.2515E+00  0.1400E+02
     18.327  0.2523E+00  0.1414E+02
     18.692  0.2477E+00  0.1428E+02
     19.056  0.2262E+00  0.1442E+02
     19.421  0.2402E+00  0.1457E+02
     19.785  0.2516E+00  0.1472E+02
     20.150  0.3403E+00  0.1488E+02
     20.514  0.2869E+00  0.1504E+02
     20.879  0.3127E+00  0.1521E+02
     21.243  0.2814E+00  0.1537E+02
     21.608  0.3173E+00  0.1553E+02
     21.972  0.2643E+00  0.1568E+02
     22.337  0.2910E+00  0.1583E+02
     22.701  0.2707E+00  0.1597E+02
     23.066  0.2570E+00  0.1610E+02
     23.430  0.2322E+00  0.1624E+02
     23.794  0.1961E+00  0.1635E+02
     24.159  0.2463E+00  0.1651E+02
     24.523  0.1778E+00  0.1660E+02
     24.888  0.2402E+00  0.1673E+02
     25.252  0.1824E+00  0.1684E+02
     25.617  0.1910E+00  0.1697E+02
     25.981  0.1979E+00  0.1708E+02
     26.346  0.2812E+00  0.1725E+02
     26.710  0.2304E+00  0.1739E+02
     27.075  0.2873E+00  0.1756E+02
     27.439  0.2492E+00  0.1772E+02
     27.804  0.3367E+00  0.1792E+02
     28.168  0.3008E+00  0.1811E+02
     28.533  0.4096E+00  0.1833E+02
     28.897  0.4365E+00  0.1855E+02
     29.261  0.4792E+00  0.1876E+02
     29.626  0.4233E+00  0.1898E+02
     29.990  0.3476E+00  0.1916E+02
     30.355  0.3321E+00  0.1935E+02
     30.719  0.2532E+00  0.1952E+02
     31.084  0.3607E+00  0.1971E+02
     31.448  0.2599E+00  0.1986E+02
     31.813  0.2181E+00  0.1997E+02
     32.177  0.2529E+00  0.2011E+02
     32.542  0.1924E+00  0.2025E+02
     32.906  0.2607E+00  0.2038E+02
     33.271  0.1855E+00  0.2049E+02
     33.635  0.2612E+00  0.2062E+02
     34.000  0.4802E+00  0.2085E+02
     34.364  0.3619E+00  0.2105E+02
     34.729  0.3776E+00  0.2125E+02
     35.093  0.3413E+00  0.2144E+02
     35.457  0.4102E+00  0.2166E+02
     35.822  0.3162E+00  0.2184E+02
     36.186  0.2818E+00  0.2197E+02
     36.551  0.3248E+00  0.2213E+02
     36.915  0.3569E+00  0.2231E+02
     37.280  0.2669E+00  0.2248E+02
     37.644  0.3118E+00  0.2265E+02
     38.009  0.3839E+00  0.2286E+02
     38.373  0.3551E+00  0.2307E+02
     38.738  0.3782E+00  0.2330E+02
     39.102  0.3787E+00  0.2350E+02
     39.467  0.3693E+00  0.2370E+02
     39.831  0.2661E+00  0.2387E+02
     40.196  0.3692E+00  0.2407E+02
     40.560  0.3699E+00  0.2427E+02
     40.924  0.3179E+00  0.2444E+02
     41.289  0.3814E+00  0.2463E+02
     41.653  0.4287E+00  0.2487E+02
     42.018  0.2656E+00  0.2503E+02
     42.382  0.3565E+00  0.2523E+02
     42.747  0.4323E+00  0.2546E+02
     43.111  0.4275E+00  0.2570E+02
     43.476  0.3229E+00  0.2587E+02
     43.840  0.4024E+00  0.2608E+02
     44.205  0.3604E+00  0.2632E+02
     44.569  0.4178E+00  0.2654E+02
     44.934  0.4278E+00  0.2677E+02
     45.298  0.3964E+00  0.2698E+02
     45.663  0.3497E+00  0.2719E+02
     46.027  0.3770E+00  0.2739E+02
     46.391  0.4350E+00  0.2762E+02
     46.756  0.5418E+00  0.2787E+02
     47.120  0.3215E+00  0.2808E+02
     47.485  0.3670E+00  0.2828E+02
     47.849  0.4035E+00  0.2850E+02
     48.214  0.3273E+00  0.2875E+02
     48.578  0.4281E+00  0.2899E+02
     48.943  0.3542E+00  0.2918E+02
     49.307  0.4188E+00  0.2945E+02
     49.672  0.4501E+00  0.2971E+02
     50.036  0.3007E+00  0.2991E+02
     50.401  0.4762E+00  0.3015E+02
     50.765  0.5183E+00  0.3045E+02
     51.130  0.3821E+00  0.3068E+02
     51.494  0.4249E+00  0.3092E+02
     51.859  0.6007E+00  0.3121E+02
     52.223  0.4110E+00  0.3145E+02
     52.587  0.4158E+00  0.3170E+02
     52.952  0.4411E+00  0.3192E+02
     53.316  0.3831E+00  0.3214E+02
     53.681  0.3162E+00  0.3233E+02
     54.045  0.4124E+00  0.3255E+02
     54.410  0.3465E+00  0.3276E+02
     54.774  0.3454E+00  0.3296E+02
     55.139  0.4232E+00  0.3320E+02
     55.503  0.4051E+00  0.3343E+02
     55.868  0.4159E+00  0.3368E+02
     56.232  0.3878E+00  0.3390E+02
     56.597  0.3916E+00  0.3412E+02
     56.961  0.4490E+00  0.3437E+02
     57.326  0.3359E+00  0.3459E+02
     57.690  0.3134E+00  0.3479E+02
     58.054  0.4216E+00  0.3500E+02
     58.419  0.4068E+00  0.3524E+02
     58.783  0.4472E+00  0.3549E+02
     59.148  0.5559E+00  0.3577E+02
     59.512  0.3921E+00  0.3597E+02
     59.877  0.3968E+00  0.3622E+02
     60.241  0.4157E+00  0.3645E+02
     60.606  0.5254E+00  0.3673E+02
     60.970  0.4828E+00  0.3700E+02
     61.335  0.5438E+00  0.3728E+02
     61.699  0.5246E+00  0.3756E+02
     62.064  0.7029E+00  0.3792E+02
     62.428  0.5304E+00  0.3822E+02
     62.793  0.4083E+00  0.3845E+02
     63.157  0.4969E+00  0.3871E+02
     63.522  0.5574E+00  0.3902E+02
     63.886  0.4612E+00  0.3927E+02
     64.250  0.4681E+00  0.3951E+02
     64.615  0.4837E+00  0.3978E+02
     64.979  0.4158E+00  0.4000E+02
     65.344  0.4727E+00  0.4028E+02
     65.708  0.3831E+00  0.4052E+02
     66.073  0.4881E+00  0.4075E+02
     66.437  0.4752E+00  0.4099E+02
     66.802  0.4151E+00  0.4121E+02
     67.166  0.5474E+00  0.4151E+02
     67.531  0.4296E+00  0.4175E+02
     67.895  0.5021E+00  0.4201E+02
     68.260  0.5952E+00  0.4232E+02
     68.624  0.5038E+00  0.4258E+02
     68.989  0.4658E+00  0.4284E+02
     69.353  0.4324E+00  0.4308E+02
     69.717  0.5409E+00  0.4334E+02
     70.082  0.5589E+00  0.4365E+02
     70.446  0.5388E+00  0.4394E+02
     70.811  0.4460E+00  0.4420E+02
     71.175  0.4050E+00  0.4445E+02
     71.540  0.4592E+00  0.4472E+02
     71.904  0.5064E+00  0.4498E+02
     72.269  0.4338E+00  0.4526E+02
     72.633  0.5132E+00  0.4557E+02
     72.998  0.4596E+00  0.4583E+02
     73.362  0.4607E+00  0.4612E+02
     73.727  0.6531E+00  0.4651E+02
     74.091  0.6261E+00  0.4685E+02
     74.456  0.5255E+00  0.4714E+02
     74.820  0.5376E+00  0.4741E+02
     75.184  0.6428E+00  0.4775E+02
     75.549  0.5566E+00  0.4803E+02
     75.913  0.3639E+00  0.4823E+02
     76.278  0.4717E+00  0.4846E+02
     76.642  0.4646E+00  0.4873E+02
     77.007  0.5394E+00  0.4903E+02
     77.371  0.4528E+00  0.4929E+02
     77.736  0.5002E+00  0.4958E+02
     78.100  0.5021E+00  0.4987E+02
     78.465  0.5173E+00  0.5014E+02
     78.829  0.5080E+00  0.5045E+02
     79.194  0.5808E+00  0.5075E+02
     79.558  0.4413E+00  0.5100E+02
     79.923  0.4360E+00  0.5124E+02
     80.287  0.5885E+00  0.5157E+02
     80.652  0.5538E+00  0.5187E+02
     81.016  0.4873E+00  0.5218E+02
     81.380  0.6163E+00  0.5252E+02
     81.745  0.6225E+00  0.5285E+02
     82.109  0.4658E+00  0.5316E+02
     82.474  0.5814E+00  0.5347E+02
     82.838  0.4680E+00  0.5376E+02
     83.203  0.6524E+00  0.5414E+02
     83.567  0.6612E+00  0.5450E+02
     83.932  0.7286E+00  0.5490E+02
     84.296  0.5496E+00  0.5523E+02
     84.661  0.5344E+00  0.5553E+02
     85.025  0.6265E+00  0.5585E+02
     85.390  0.6155E+00  0.5616E+02
     85.754  0.6777E+00  0.5651E+02
     86.119  0.5426E+00  0.5680E+02
     86.483  0.7180E+00  0.5718E+02
     86.847  0.7290E+00  0.5751E+02
     87.212  0.5525E+00  0.5784E+02
     87.576  0.5501E+00  0.5818E+02
     87.941  0.5878E+00  0.5849E+02
     88.305  0.6508E+00  0.5888E+02
     88.670  0.6073E+00  0.5921E+02
     89.034  0.6267E+00  0.5954E+02
     89.399  0.7382E+00  0.5993E+02
     89.763  0.5434E+00  0.6023E+02
     90.128  0.7059E+00  0.6059E+02
     90.492  0.7252E+00  0.6099E+02
     90.857  0.7045E+00  0.6141E+02
     91.221  0.6920E+00  0.6176E+02
     91.586  0.6334E+00  0.6211E+02
     91.950  0.5556E+00  0.6243E+02
     92.315  0.5816E+00  0.6276E+02
     92.679  0.4924E+00  0.6303E+02
     93.043  0.4383E+00  0.6330E+02
     93.408  0.2877E+00  0.6347E+02
     93.772  0.1709E+00  0.6358E+02
     94.137  0.1808E+00  0.6368E+02
     94.501  0.1122E+00  0.6375E+02
     94.866  0.9224E-01  0.6380E+02
     95.230  0.5877E-01  0.6383E+02
     95.595  0.8604E-01  0.6387E+02
     95.959  0.2063E-01  0.6389E+02
     96.324  0.9169E-01  0.6393E+02
     96.688  0.5138E-01  0.6396E+02
     97.053  0.2927E-01  0.6398E+02
     97.417  0.3414E-01  0.6400E+02
     97.782  0.2439E-02  0.6400E+02
     98.146  0.0000E+00  0.6400E+02
     98.510  0.0000E+00  0.6400E+02
     98.875  0.0000E+00  0.6400E+02
     99.239  0.0000E+00  0.6400E+02
     99.604  0.0000E+00  0.6400E+02
     99.968  0.0000E+00  0.6400E+02
    100.333  0.0000E+00  0.6400E+02
    100.697  0.0000E+00  0.6400E+02
    101.062  0.0000E+00  0.6400E+02
    101.426  0.0000E+00  0.6400E+02
    101.791  0.0000E+00  0.6400E+02
    102.155  0.0000E+00  0.6400E+02
    102.520  0.0000E+00  0.6400E+02
    102.51962539     -6.82087902  301      7.38470648      1.00000000
     -6.821  0.0000E+00  0.0000E+00  0.0000E+00  0.0000E+00  0.0000E+00  0.0000E+00  0.0000E+00  0.0000E+00  0.0000E+00
     -6.456  0.0000E+00  0.0000E+00  0.0000E+00  0.0000E+00  0.0000E+00  0.0000E+00  0.0000E+00  0.0000E+00  0.0000E+00
     -6.092  0.0000E+00  0.0000E+00  0.0000E+00  0.0000E+00  0.0000E+00  0.0000E+00  0.0000E+00  0.0000E+00  0.0000E+00
     -5.727  0.0000E+00  0.0000E+00  0.0000E+00  0.0000E+00  0.0000E+00  0.0000E+00  0.0000E+00  0.0000E+00  0.0000E+00
     -5.363  0.0000E+00  0.0000E+00  0.0000E+00  0.0000E+00  0.0000E+00  0.0000E+00  0.0000E+00  0.0000E+00  0.0000E+00
     -4.999  0.0000E+00  0.0000E+00  0.0000E+00  0.0000E+00  0.0000E+00  0.0000E+00  0.0000E+00  0.0000E+00  0.0000E+00
     -4.634  0.0000E+00  0.0000E+00  0.0000E+00  0.0000E+00  0.0000E+00  0.0000E+00  0.0000E+00  0.0000E+00  0.0000E+00
     -4.270  0.0000E+00  0.0000E+00  0.0000E+00  0.0000E+00  0.0000E+00  0.0000E+00  0.0000E+00  0.0000E+00  0.0000E+00
     -3.905  0.0000E+00  0.0000E+00  0.0000E+00  0.0000E+00  0.0000E+00  0.0000E+00  0.0000E+00  0.0000E+00  0.0000E+00
     -3.541  0.0000E+00  0.0000E+00  0.0000E+00  0.0000E+00  0.0000E+00  0.0000E+00  0.0000E+00  0.0000E+00  0.0000E+00
     -3.176  0.0000E+00  0.0000E+00  0.0000E+00  0.0000E+00  0.0000E+00  0.0000E+00  0.0000E+00  0.0000E+00  0.0000E+00
     -2.812  0.0000E+00  0.0000E+00  0.0000E+00  0.0000E+00  0.0000E+00  0.0000E+00  0.0000E+00  0.0000E+00  0.0000E+00
     -2.447  0.0000E+00  0.0000E+00  0.0000E+00  0.0000E+00  0.0000E+00  0.0000E+00  0.0000E+00  0.0000E+00  0.0000E+00
     -2.083  0.0000E+00  0.0000E+00  0.0000E+00  0.0000E+00  0.0000E+00  0.0000E+00  0.0000E+00  0.0000E+00  0.0000E+00
     -1.718  0.3779E-02  0.9427E-05  0.9427E-05  0.9427E-05  0.5743E-07  0.5743E-07  0.4228E-07  0.5743E-07  0.4228E-07
     -1.354  0.1856E-01  0.2146E-03  0.2146E-03  0.2146E-03  0.5399E-05  0.5399E-05  0.3876E-05  0.5399E-05  0.3876E-05
     -0.989  0.2357E-01  0.5196E-03  0.5196E-03  0.5196E-03  0.2517E-04  0.2517E-04  0.1980E-04  0.2517E-04  0.1980E-04
     -0.625  0.2584E-01  0.8716E-03  0.8716E-03  0.8716E-03  0.6719E-04  0.6719E-04  0.6098E-04  0.6719E-04  0.6098E-04
     -0.260  0.3130E-01  0.1440E-02  0.1440E-02  0.1440E-02  0.1781E-03  0.1781E-03  0.1452E-03  0.1781E-03  0.1452E-03
      0.104  0.3852E-01  0.2264E-02  0.2264E-02  0.2264E-02  0.4166E-03  0.4166E-03  0.3184E-03  0.4166E-03  0.3184E-03
      0.468  0.4375E-01  0.3155E-02  0.3155E-02  0.3155E-02  0.8001E-03  0.8001E-03  0.6112E-03  0.8001E-03  0.6112E-03
      0.833  0.4838E-01  0.4161E-02  0.4161E-02  0.4161E-02  0.1468E-02  0.1468E-02  0.1116E-02  0.1468E-02  0.1116E-02
      1.197  0.4818E-01  0.4849E-02  0.4849E-02  0.4849E-02  0.2422E-02  0.2422E-02  0.1868E-02  0.2422E-02  0.1868E-02
      1.562  0.4553E-01  0.5183E-02  0.5183E-02  0.5183E-02  0.4112E-02  0.4112E-02  0.3088E-02  0.4112E-02  0.3088E-02
      1.926  0.5401E-01  0.6844E-02  0.6844E-02  0.6844E-02  0.8357E-02  0.8357E-02  0.6113E-02  0.8357E-02  0.6113E-02
      2.291  0.6753E-01  0.9135E-02  0.9135E-02  0.9135E-02  0.2129E-01  0.2129E-01  0.1404E-01  0.2129E-01  0.1404E-01
      2.655  0.8576E-01  0.1091E-01  0.1091E-01  0.1091E-01  0.6269E-01  0.6269E-01  0.6475E-01  0.6269E-01  0.6475E-01
      3.020  0.7009E-01  0.1222E-01  0.1222E-01  0.1222E-01  0.7984E-01  0.7984E-01  0.1612E+00  0.7984E-01  0.1612E+00
      3.384  0.3927E-01  0.1510E-01  0.1510E-01  0.1510E-01  0.2910E+00  0.2910E+00  0.1889E+00  0.2910E+00  0.1889E+00
      3.749  0.4402E-02  0.1784E-01  0.1784E-01  0.1784E-01  0.2678E+00  0.2678E+00  0.1906E+00  0.2678E+00  0.1906E+00
      4.113  0.8459E-02  0.2310E-01  0.2310E-01  0.2310E-01  0.4070E+00  0.4070E+00  0.2202E+00  0.4070E+00  0.2202E+00
      4.478  0.2044E-01  0.2810E-01  0.2810E-01  0.2810E-01  0.5183E+00  0.5183E+00  0.3880E+00  0.5183E+00  0.3880E+00
      4.842  0.1071E-01  0.1551E-01  0.1551E-01  0.1551E-01  0.3536E+00  0.3536E+00  0.3622E+00  0.3536E+00  0.3622E+00
      5.207  0.9238E-02  0.1141E-01  0.1141E-01  0.1141E-01  0.2553E+00  0.2553E+00  0.8092E+00  0.2553E+00  0.8092E+00
      5.571  0.6808E-02  0.5932E-02  0.5932E-02  0.5932E-02  0.3376E+00  0.3376E+00  0.5513E+00  0.3376E+00  0.5513E+00
      5.936  0.1035E-01  0.4277E-02  0.4277E-02  0.4277E-02  0.5741E+00  0.5741E+00  0.2645E+00  0.5741E+00  0.2645E+00
      6.300  0.1326E-01  0.6064E-02  0.6064E-02  0.6064E-02  0.3199E-01  0.3199E-01  0.3076E-01  0.3199E-01  0.3076E-01
      6.664  0.1907E-01  0.9603E-02  0.9603E-02  0.9603E-02  0.3160E-01  0.3160E-01  0.2891E-01  0.3160E-01  0.2891E-01
      7.029  0.1761E-01  0.1230E-01  0.1230E-01  0.1230E-01  0.2250E-01  0.2250E-01  0.2061E-01  0.2250E-01  0.2061E-01
      7.393  0.1786E-01  0.1279E-01  0.1279E-01  0.1279E-01  0.1844E-01  0.1844E-01  0.1711E-01  0.1844E-01  0.1711E-01
      7.758  0.2616E-01  0.1622E-01  0.1622E-01  0.1622E-01  0.2370E-01  0.2370E-01  0.2104E-01  0.2370E-01  0.2104E-01
      8.122  0.1557E-01  0.1364E-01  0.1364E-01  0.1364E-01  0.1277E-01  0.1277E-01  0.1229E-01  0.1277E-01  0.1229E-01
      8.487  0.1828E-01  0.1422E-01  0.1422E-01  0.1422E-01  0.1329E-01  0.1329E-01  0.1195E-01  0.1329E-01  0.1195E-01
      8.851  0.1110E-01  0.1484E-01  0.1484E-01  0.1484E-01  0.8273E-02  0.8273E-02  0.8200E-02  0.8273E-02  0.8200E-02
      9.216  0.1471E-01  0.1880E-01  0.1880E-01  0.1880E-01  0.1020E-01  0.1020E-01  0.8726E-02  0.1020E-01  0.8726E-02
      9.580  0.1153E-01  0.1630E-01  0.1630E-01  0.1630E-01  0.8240E-02  0.8240E-02  0.6459E-02  0.8240E-02  0.6459E-02
      9.945  0.1441E-01  0.1666E-01  0.1666E-01  0.1666E-01  0.9540E-02  0.9540E-02  0.7665E-02  0.9540E-02  0.7665E-02
     10.309  0.7291E-02  0.1480E-01  0.1480E-01  0.1480E-01  0.6606E-02  0.6606E-02  0.4837E-02  0.6606E-02  0.4837E-02
     10.674  0.9954E-02  0.1299E-01  0.1299E-01  0.1299E-01  0.6640E-02  0.6640E-02  0.5048E-02  0.6640E-02  0.5048E-02
     11.038  0.5764E-02  0.1390E-01  0.1390E-01  0.1390E-01  0.6069E-02  0.6069E-02  0.3369E-02  0.6069E-02  0.3369E-02
     11.403  0.4334E-01  0.1133E-01  0.1133E-01  0.1133E-01  0.1553E-01  0.1553E-01  0.2360E-02  0.1553E-01  0.2360E-02
     11.767  0.5194E-01  0.1470E-01  0.1470E-01  0.1470E-01  0.1719E-01  0.1719E-01  0.2757E-02  0.1719E-01  0.2757E-02
     12.131  0.4995E-01  0.1235E-01  0.1235E-01  0.1235E-01  0.1525E-01  0.1525E-01  0.1556E-02  0.1525E-01  0.1556E-02
     12.496  0.4273E-01  0.1633E-01  0.1633E-01  0.1633E-01  0.1449E-01  0.1449E-01  0.1801E-02  0.1449E-01  0.1801E-02
     12.860  0.3307E-01  0.1388E-01  0.1388E-01  0.1388E-01  0.1095E-01  0.1095E-01  0.1673E-02  0.1095E-01  0.1673E-02
     13.225  0.3057E-01  0.1450E-01  0.1450E-01  0.1450E-01  0.1097E-01  0.1097E-01  0.1576E-02  0.1097E-01  0.1576E-02
     13.589  0.2689E-01  0.1425E-01  0.1425E-01  0.1425E-01  0.9976E-02  0.9976E-02  0.1615E-02  0.9976E-02  0.1615E-02
     13.954  0.2748E-01  0.1655E-01  0.1655E-01  0.1655E-01  0.1079E-01  0.1079E-01  0.1877E-02  0.1079E-01  0.1877E-02
     14.318  0.2415E-01  0.1735E-01  0.1735E-01  0.1735E-01  0.1040E-01  0.1040E-01  0.1792E-02  0.1040E-01  0.1792E-02
     14.683  0.3642E-01  0.1272E-01  0.1272E-01  0.1272E-01  0.6984E-02  0.6984E-02  0.1137E-01  0.6984E-02  0.1137E-01
     15.047  0.4051E-01  0.1565E-01  0.1565E-01  0.1565E-01  0.8073E-02  0.8073E-02  0.9912E-02  0.8073E-02  0.9912E-02
     15.412  0.5348E-01  0.1735E-01  0.1735E-01  0.1735E-01  0.8593E-02  0.8593E-02  0.1176E-01  0.8593E-02  0.1176E-01
     15.776  0.4987E-01  0.1596E-01  0.1596E-01  0.1596E-01  0.7143E-02  0.7143E-02  0.1323E-01  0.7143E-02  0.1323E-01
     16.141  0.5932E-01  0.2433E-01  0.2433E-01  0.2433E-01  0.9805E-02  0.9805E-02  0.1396E-01  0.9805E-02  0.1396E-01
     16.505  0.4471E-01  0.1676E-01  0.1676E-01  0.1676E-01  0.6645E-02  0.6645E-02  0.1023E-01  0.6645E-02  0.1023E-01
     16.870  0.4760E-01  0.1728E-01  0.1728E-01  0.1728E-01  0.6190E-02  0.6190E-02  0.1232E-01  0.6190E-02  0.1232E-01
     17.234  0.3873E-01  0.2408E-01  0.2408E-01  0.2408E-01  0.8532E-02  0.8532E-02  0.8994E-02  0.8532E-02  0.8994E-02
     17.599  0.4504E-01  0.2409E-01  0.2409E-01  0.2409E-01  0.7724E-02  0.7724E-02  0.1341E-01  0.7724E-02  0.1341E-01
     17.963  0.4444E-01  0.2318E-01  0.2318E-01  0.2318E-01  0.7356E-02  0.7356E-02  0.1197E-01  0.7356E-02  0.1197E-01
     18.327  0.3639E-01  0.2628E-01  0.2628E-01  0.2628E-01  0.7061E-02  0.7061E-02  0.1070E-01  0.7061E-02  0.1070E-01
     18.692  0.3493E-01  0.2523E-01  0.2523E-01  0.2523E-01  0.8529E-02  0.8529E-02  0.9395E-02  0.8529E-02  0.9395E-02
     19.056  0.3056E-01  0.2391E-01  0.2391E-01  0.2391E-01  0.6677E-02  0.6677E-02  0.9016E-02  0.6677E-02  0.9016E-02
     19.421  0.3161E-01  0.2558E-01  0.2558E-01  0.2558E-01  0.6536E-02  0.6536E-02  0.1018E-01  0.6536E-02  0.1018E-01
     19.785  0.2677E-01  0.2861E-01  0.2861E-01  0.2861E-01  0.7666E-02  0.7666E-02  0.9356E-02  0.7666E-02  0.9356E-02
     20.150  0.3578E-01  0.3942E-01  0.3942E-01  0.3942E-01  0.9202E-02  0.9202E-02  0.1302E-01  0.9202E-02  0.1302E-01
     20.514  0.2421E-01  0.3560E-01  0.3560E-01  0.3560E-01  0.7288E-02  0.7288E-02  0.1022E-01  0.7288E-02  0.1022E-01
     20.879  0.2724E-01  0.3745E-01  0.3745E-01  0.3745E-01  0.8927E-02  0.8927E-02  0.1124E-01  0.8927E-02  0.1124E-01
     21.243  0.2095E-01  0.3340E-01  0.3340E-01  0.3340E-01  0.8206E-02  0.8206E-02  0.1159E-01  0.8206E-02  0.1159E-01
     21.608  0.2395E-01  0.3938E-01  0.3938E-01  0.3938E-01  0.9737E-02  0.9737E-02  0.1018E-01  0.9737E-02  0.1018E-01
     21.972  0.1597E-01  0.3228E-01  0.3228E-01  0.3228E-01  0.7388E-02  0.7388E-02  0.1119E-01  0.7388E-02  0.1119E-01
     22.337  0.1959E-01  0.3548E-01  0.3548E-01  0.3548E-01  0.7885E-02  0.7885E-02  0.1189E-01  0.7885E-02  0.1189E-01
     22.701  0.1623E-01  0.3366E-01  0.3366E-01  0.3366E-01  0.7399E-02  0.7399E-02  0.1094E-01  0.7399E-02  0.1094E-01
     23.066  0.1510E-01  0.3045E-01  0.3045E-01  0.3045E-01  0.7409E-02  0.7409E-02  0.1156E-01  0.7409E-02  0.1156E-01
     23.430  0.1247E-01  0.2981E-01  0.2981E-01  0.2981E-01  0.6104E-02  0.6104E-02  0.9324E-02  0.6104E-02  0.9324E-02
     23.794  0.1140E-01  0.2333E-01  0.2333E-01  0.2333E-01  0.5490E-02  0.5490E-02  0.8968E-02  0.5490E-02  0.8968E-02
     24.159  0.1066E-01  0.2993E-01  0.2993E-01  0.2993E-01  0.7189E-02  0.7189E-02  0.1108E-01  0.7189E-02  0.1108E-01
     24.523  0.7450E-02  0.2072E-01  0.2072E-01  0.2072E-01  0.5099E-02  0.5099E-02  0.9001E-02  0.5099E-02  0.9001E-02
     24.888  0.1028E-01  0.2798E-01  0.2798E-01  0.2798E-01  0.6593E-02  0.6593E-02  0.1247E-01  0.6593E-02  0.1247E-01
     25.252  0.6973E-02  0.1890E-01  0.1890E-01  0.1890E-01  0.7767E-02  0.7767E-02  0.8879E-02  0.7767E-02  0.8879E-02
     25.617  0.6887E-02  0.1874E-01  0.1874E-01  0.1874E-01  0.9069E-02  0.9069E-02  0.8649E-02  0.9069E-02  0.8649E-02
     25.981  0.8085E-02  0.1697E-01  0.1697E-01  0.1697E-01  0.1129E-01  0.1129E-01  0.9184E-02  0.1129E-01  0.9184E-02
     26.346  0.1304E-01  0.2169E-01  0.2169E-01  0.2169E-01  0.1868E-01  0.1868E-01  0.9130E-02  0.1868E-01  0.9130E-02
     26.710  0.1389E-01  0.1483E-01  0.1483E-01  0.1483E-01  0.1645E-01  0.1645E-01  0.7972E-02  0.1645E-01  0.7972E-02
     27.075  0.1555E-01  0.2063E-01  0.2063E-01  0.2063E-01  0.1651E-01  0.1651E-01  0.1115E-01  0.1651E-01  0.1115E-01
     27.439  0.1629E-01  0.1537E-01  0.1537E-01  0.1537E-01  0.1492E-01  0.1492E-01  0.8086E-02  0.1492E-01  0.8086E-02
     27.804  0.2541E-01  0.2157E-01  0.2157E-01  0.2157E-01  0.1771E-01  0.1771E-01  0.1262E-01  0.1771E-01  0.1262E-01
     28.168  0.2092E-01  0.1951E-01  0.1951E-01  0.1951E-01  0.1330E-01  0.1330E-01  0.1072E-01  0.1330E-01  0.1072E-01
     28.533  0.2493E-01  0.3009E-01  0.3009E-01  0.3009E-01  0.1693E-01  0.1693E-01  0.1401E-01  0.1693E-01  0.1401E-01
     28.897  0.2655E-01  0.3351E-01  0.3351E-01  0.3351E-01  0.1683E-01  0.1683E-01  0.1297E-01  0.1683E-01  0.1297E-01
     29.261  0.2655E-01  0.4120E-01  0.4120E-01  0.4120E-01  0.1605E-01  0.1605E-01  0.1435E-01  0.1605E-01  0.1435E-01
     29.626  0.2290E-01  0.3689E-01  0.3689E-01  0.3689E-01  0.1428E-01  0.1428E-01  0.1294E-01  0.1428E-01  0.1294E-01
     29.990  0.1564E-01  0.3050E-01  0.3050E-01  0.3050E-01  0.1400E-01  0.1400E-01  0.8160E-02  0.1400E-01  0.8160E-02
     30.355  0.1238E-01  0.3031E-01  0.3031E-01  0.3031E-01  0.1309E-01  0.1309E-01  0.6459E-02  0.1309E-01  0.6459E-02
     30.719  0.1305E-01  0.2013E-01  0.2013E-01  0.2013E-01  0.1100E-01  0.1100E-01  0.6893E-02  0.1100E-01  0.6893E-02
     31.084  0.1888E-01  0.3492E-01  0.3492E-01  0.3492E-01  0.1279E-01  0.1279E-01  0.8519E-02  0.1279E-01  0.8519E-02
     31.448  0.8226E-02  0.2481E-01  0.2481E-01  0.2481E-01  0.9286E-02  0.9286E-02  0.6447E-02  0.9286E-02  0.6447E-02
     31.813  0.6957E-02  0.2097E-01  0.2097E-01  0.2097E-01  0.7532E-02  0.7532E-02  0.5672E-02  0.7532E-02  0.5672E-02
     32.177  0.1373E-01  0.2565E-01  0.2565E-01  0.2565E-01  0.8792E-02  0.8792E-02  0.7008E-02  0.8792E-02  0.7008E-02
     32.542  0.6438E-02  0.1712E-01  0.1712E-01  0.1712E-01  0.6768E-02  0.6768E-02  0.9386E-02  0.6768E-02  0.9386E-02
     32.906  0.7476E-02  0.2256E-01  0.2256E-01  0.2256E-01  0.9942E-02  0.9942E-02  0.1602E-01  0.9942E-02  0.1602E-01
     33.271  0.7663E-02  0.1785E-01  0.1785E-01  0.1785E-01  0.6452E-02  0.6452E-02  0.1130E-01  0.6452E-02  0.1130E-01
     33.635  0.9117E-02  0.1910E-01  0.1910E-01  0.1910E-01  0.1260E-01  0.1260E-01  0.1745E-01  0.1260E-01  0.1745E-01
     34.000  0.1477E-01  0.3080E-01  0.3080E-01  0.3080E-01  0.2235E-01  0.2235E-01  0.3856E-01  0.2235E-01  0.3856E-01
     34.364  0.1242E-01  0.2121E-01  0.2121E-01  0.2121E-01  0.1956E-01  0.1956E-01  0.2713E-01  0.1956E-01  0.2713E-01
     34.729  0.9426E-02  0.2018E-01  0.2018E-01  0.2018E-01  0.2215E-01  0.2215E-01  0.2804E-01  0.2215E-01  0.2804E-01
     35.093  0.8567E-02  0.1238E-01  0.1238E-01  0.1238E-01  0.2218E-01  0.2218E-01  0.2666E-01  0.2218E-01  0.2666E-01
     35.457  0.1126E-01  0.2392E-01  0.2392E-01  0.2392E-01  0.2641E-01  0.2641E-01  0.2221E-01  0.2641E-01  0.2221E-01
     35.822  0.5565E-02  0.1530E-01  0.1530E-01  0.1530E-01  0.2075E-01  0.2075E-01  0.1929E-01  0.2075E-01  0.1929E-01
     36.186  0.4403E-02  0.1195E-01  0.1195E-01  0.1195E-01  0.1785E-01  0.1785E-01  0.2113E-01  0.1785E-01  0.2113E-01
     36.551  0.2797E-02  0.1292E-01  0.1292E-01  0.1292E-01  0.2157E-01  0.2157E-01  0.2217E-01  0.2157E-01  0.2217E-01
     36.915  0.8494E-02  0.1812E-01  0.1812E-01  0.1812E-01  0.2329E-01  0.2329E-01  0.2361E-01  0.2329E-01  0.2361E-01
     37.280  0.9095E-02  0.1226E-01  0.1226E-01  0.1226E-01  0.1785E-01  0.1785E-01  0.1817E-01  0.1785E-01  0.1817E-01
     37.644  0.1842E-01  0.9813E-02  0.9813E-02  0.9813E-02  0.2170E-01  0.2170E-01  0.2046E-01  0.2170E-01  0.2046E-01
     38.009  0.1647E-01  0.1479E-01  0.1479E-01  0.1479E-01  0.2278E-01  0.2278E-01  0.3078E-01  0.2278E-01  0.3078E-01
     38.373  0.1214E-01  0.1442E-01  0.1442E-01  0.1442E-01  0.2248E-01  0.2248E-01  0.2778E-01  0.2248E-01  0.2778E-01
     38.738  0.1306E-01  0.1544E-01  0.1544E-01  0.1544E-01  0.2252E-01  0.2252E-01  0.2671E-01  0.2252E-01  0.2671E-01
     39.102  0.1370E-01  0.1240E-01  0.1240E-01  0.1240E-01  0.2593E-01  0.2593E-01  0.2400E-01  0.2593E-01  0.2400E-01
     39.467  0.8166E-02  0.1313E-01  0.1313E-01  0.1313E-01  0.2424E-01  0.2424E-01  0.2411E-01  0.2424E-01  0.2411E-01
     39.831  0.7868E-02  0.9163E-02  0.9163E-02  0.9163E-02  0.1642E-01  0.1642E-01  0.1815E-01  0.1642E-01  0.1815E-01
     40.196  0.1004E-01  0.1347E-01  0.1347E-01  0.1347E-01  0.2475E-01  0.2475E-01  0.2237E-01  0.2475E-01  0.2237E-01
     40.560  0.8544E-02  0.1358E-01  0.1358E-01  0.1358E-01  0.2580E-01  0.2580E-01  0.2107E-01  0.2580E-01  0.2107E-01
     40.924  0.8177E-02  0.1277E-01  0.1277E-01  0.1277E-01  0.2020E-01  0.2020E-01  0.2244E-01  0.2020E-01  0.2244E-01
     41.289  0.1272E-01  0.1459E-01  0.1459E-01  0.1459E-01  0.2839E-01  0.2839E-01  0.2277E-01  0.2839E-01  0.2277E-01
     41.653  0.1493E-01  0.1683E-01  0.1683E-01  0.1683E-01  0.2693E-01  0.2693E-01  0.2797E-01  0.2693E-01  0.2797E-01
     42.018  0.8228E-02  0.9908E-02  0.9908E-02  0.9908E-02  0.1698E-01  0.1698E-01  0.1924E-01  0.1698E-01  0.1924E-01
     42.382  0.1724E-01  0.1164E-01  0.1164E-01  0.1164E-01  0.2341E-01  0.2341E-01  0.2314E-01  0.2341E-01  0.2314E-01
     42.747  0.2027E-01  0.1352E-01  0.1352E-01  0.1352E-01  0.2655E-01  0.2655E-01  0.2793E-01  0.2655E-01  0.2793E-01
     43.111  0.1735E-01  0.1679E-01  0.1679E-01  0.1679E-01  0.2971E-01  0.2971E-01  0.3036E-01  0.2971E-01  0.3036E-01
     43.476  0.1587E-01  0.1124E-01  0.1124E-01  0.1124E-01  0.1924E-01  0.1924E-01  0.2168E-01  0.1924E-01  0.2168E-01
     43.840  0.1818E-01  0.1328E-01  0.1328E-01  0.1328E-01  0.2650E-01  0.2650E-01  0.2194E-01  0.2650E-01  0.2194E-01
     44.205  0.1733E-01  0.1402E-01  0.1402E-01  0.1402E-01  0.2469E-01  0.2469E-01  0.2035E-01  0.2469E-01  0.2035E-01
     44.569  0.1560E-01  0.1598E-01  0.1598E-01  0.1598E-01  0.2940E-01  0.2940E-01  0.2233E-01  0.2940E-01  0.2233E-01
     44.934  0.1793E-01  0.1610E-01  0.1610E-01  0.1610E-01  0.2896E-01  0.2896E-01  0.2073E-01  0.2896E-01  0.2073E-01
     45.298  0.1655E-01  0.1492E-01  0.1492E-01  0.1492E-01  0.2534E-01  0.2534E-01  0.2275E-01  0.2534E-01  0.2275E-01
     45.663  0.1736E-01  0.1154E-01  0.1154E-01  0.1154E-01  0.2745E-01  0.2745E-01  0.1570E-01  0.2745E-01  0.1570E-01
     46.027  0.1476E-01  0.1156E-01  0.1156E-01  0.1156E-01  0.2222E-01  0.2222E-01  0.1887E-01  0.2222E-01  0.1887E-01
     46.391  0.2022E-01  0.1650E-01  0.1650E-01  0.1650E-01  0.2789E-01  0.2789E-01  0.2700E-01  0.2789E-01  0.2700E-01
     46.756  0.2290E-01  0.1811E-01  0.1811E-01  0.1811E-01  0.3882E-01  0.3882E-01  0.2945E-01  0.3882E-01  0.2945E-01
     47.120  0.1444E-01  0.1074E-01  0.1074E-01  0.1074E-01  0.1616E-01  0.1616E-01  0.2377E-01  0.1616E-01  0.2377E-01
     47.485  0.1374E-01  0.1392E-01  0.1392E-01  0.1392E-01  0.2244E-01  0.2244E-01  0.2120E-01  0.2244E-01  0.2120E-01
     47.849  0.1439E-01  0.1535E-01  0.1535E-01  0.1535E-01  0.2585E-01  0.2585E-01  0.2322E-01  0.2585E-01  0.2322E-01
     48.214  0.1256E-01  0.1117E-01  0.1117E-01  0.1117E-01  0.1844E-01  0.1844E-01  0.2050E-01  0.1844E-01  0.2050E-01
     48.578  0.1805E-01  0.1535E-01  0.1535E-01  0.1535E-01  0.2704E-01  0.2704E-01  0.2321E-01  0.2704E-01  0.2321E-01
     48.943  0.1369E-01  0.1234E-01  0.1234E-01  0.1234E-01  0.1986E-01  0.1986E-01  0.2452E-01  0.1986E-01  0.2452E-01
     49.307  0.1337E-01  0.1795E-01  0.1795E-01  0.1795E-01  0.2210E-01  0.2210E-01  0.2476E-01  0.2210E-01  0.2476E-01
     49.672  0.1740E-01  0.1509E-01  0.1509E-01  0.1509E-01  0.2458E-01  0.2458E-01  0.2879E-01  0.2458E-01  0.2879E-01
     50.036  0.1285E-01  0.1188E-01  0.1188E-01  0.1188E-01  0.1727E-01  0.1727E-01  0.1589E-01  0.1727E-01  0.1589E-01