    1    1    1    1
  0.1202557E+02  0.2571621E-09  0.2571621E-09  0.2571621E-09  0.5000000E-15
  1.000000000000000E-004
  CAR 
 Cu FCC                                  
     11    752     32
 
  0.0000000E+00  0.0000000E+00  0.0000000E+00  0.3703704E-04
      1         -1.850856   1.000000
      2          4.388025   1.000000
      3          4.388026   1.000000
      4          4.388026   1.000000
      5          5.192367   1.000000
      6          5.192367   1.000000
      7         29.813143   0.000000
      8         32.317473   0.000000
      9         32.317483   0.000000
     10         32.317483   0.000000
     11         34.794790   0.000000
     12         34.794792   0.000000
     13         34.794792   0.000000
     14         38.557788   0.000000
     15         43.194297   0.000000
     16         43.194315   0.000000
     17         43.194315   0.000000
     18         45.750770   0.000000
     19         45.750770   0.000000
     20         59.369572   0.000000
     21         77.987544   0.000000
     22         77.987544   0.000000
     23         77.987562   0.000000
     24         86.352544   0.000000
     25         86.352545   0.000000
     26         86.352545   0.000000
     27         86.698643   0.000000
     28         86.698643   0.000000
     29         91.125764   0.000000
     30         91.125772   0.000000
     31         91.125772   0.000000
     32         95.848091   0.000000
 
  0.3333333E-01  0.0000000E+00  0.0000000E+00  0.2962963E-03
      1         -1.810818   1.000000
      2          4.379550   1.000000
      3          4.395683   1.000000
      4          4.395684   1.000000
      5          5.189251   1.000000
      6          5.189251   1.000000
      7         29.621987   0.000000
      8         31.589311   0.000000
      9         32.169752   0.000000
     10         32.169760   0.000000
     11         35.000706   0.000000
     12         35.000708   0.000000
     13         35.518754   0.000000
     14         38.740478   0.000000
     15         42.638282   0.000000
     16         42.638296   0.000000
     17         43.278646   0.000000
     18         46.369835   0.000000
     19         46.369838   0.000000
     20         59.501203   0.000000
     21         77.596261   0.000000
     22         77.596277   0.000000
     23         78.018429   0.000000
     24         85.664276   0.000000
     25         85.664277   0.000000
     26         85.791216   0.000000
     27         87.526978   0.000000
     28         87.526978   0.000000
     29         91.396408   0.000000
     30         91.396415   0.000000
     31         91.440531   0.000000
     32         95.753435   0.000000
 
  0.6666667E-01  0.0000000E+00  0.0000000E+00  0.2962963E-03
      1         -1.691090   1.000000
      2          4.354987   1.000000
      3          4.417601   1.000000
      4          4.417602   1.000000
      5          5.180882   1.000000
      6          5.180882   1.000000
      7         28.754119   0.000000
      8         30.801099   0.000000
      9         31.826560   0.000000
     10         31.826568   0.000000
     11         35.514079   0.000000
     12         35.514081   0.000000
     13         36.373755   0.000000
     14         39.504634   0.000000
     15         41.603872   0.000000
     16         41.603885   0.000000
     17         43.534933   0.000000
     18         47.597755   0.000000
     19         47.597760   0.000000
     20         59.888837   0.000000
     21         76.516590   0.000000
     22         76.516605   0.000000
     23         78.110778   0.000000
     24         84.432971   0.000000
     25         85.169267   0.000000
     26         85.169269   0.000000
     27         88.302139   0.000000
     28         88.302140   0.000000
     29         92.074784   0.000000
     30         92.230950   0.000000
     31         92.230958   0.000000
     32         95.480321   0.000000
 
  0.1000000E+00  0.0000000E+00  0.0000000E+00  0.2962963E-03
      1         -1.493119   1.000000
      2          4.316887   1.000000
      3          4.450511   1.000000
      4          4.450512   1.000000
      5          5.170366   1.000000
      6          5.170366   1.000000
      7         27.241016   0.000000
      8         30.512809   0.000000
      9         31.422189   0.000000
     10         31.422197   0.000000
     11         36.181243   0.000000
     12         36.181245   0.000000
     13         36.674167   0.000000
     14         40.533850   0.000000
     15         40.533862   0.000000
     16         40.924158   0.000000
     17         43.995958   0.000000
     18         49.011043   0.000000
     19         49.011048   0.000000
     20         60.511070   0.000000
     21         74.965612   0.000000
     22         74.965626   0.000000
     23         78.263667   0.000000
     24         82.683074   0.000000
     25         84.995765   0.000000
     26         84.995768   0.000000
     27         88.755699   0.000000
     28         88.755700   0.000000
     29         92.666215   0.000000
     30         93.473022   0.000000
     31         93.473029   0.000000
     32         95.059954   0.000000
 
  0.1333333E+00  0.0000000E+00  0.0000000E+00  0.2962963E-03
      1         -1.219519   1.000000
      2          4.269550   1.000000
      3          4.488497   1.000000
      4          4.488498   1.000000
      5          5.163166   1.000000
      6          5.163166   1.000000
      7         25.544090   0.000000
      8         30.361890   0.000000
      9         31.021790   0.000000
     10         31.021797   0.000000
     11         36.692427   0.000000
     12         36.862484   0.000000
     13         36.862484   0.000000
     14         39.593911   0.000000
     15         39.593925   0.000000
     16         42.492153   0.000000
     17         44.815360   0.000000
     18         50.518422   0.000000
     19         50.518427   0.000000
     20         61.333454   0.000000
     21         73.149344   0.000000
     22         73.149356   0.000000
     23         78.475448   0.000000
     24         80.745098   0.000000
     25         85.052301   0.000000
     26         85.052305   0.000000
     27         89.000371   0.000000
     28         89.000372   0.000000
     29         93.071380   0.000000
     30         94.535007   0.000000
     31         94.721198   0.000000
     32         94.721205   0.000000
 
  0.1666667E+00  0.0000000E+00  0.0000000E+00  0.2962963E-03
      1         -0.874464   1.000000
      2          4.219119   1.000000
      3          4.523015   1.000000
      4          4.523016   1.000000
      5          5.167228   1.000000
      6          5.167228   1.000000
      7         23.823219   0.000000
      8         30.210708   0.000000
      9         30.651228   0.000000
     10         30.651235   0.000000
     11         36.650209   0.000000
     12         37.193204   0.000000
     13         37.193206   0.000000
     14         39.148884   0.000000
     15         39.148900   0.000000
     16         43.692595   0.000000
     17         46.285016   0.000000
     18         52.093507   0.000000
     19         52.093513   0.000000
     20         62.308531   0.000000
     21         71.203248   0.000000
     22         71.203259   0.000000
     23         78.733592   0.000000
     24         78.743635   0.000000
     25         85.261494   0.000000
     26         85.261498   0.000000
     27         89.125592   0.000000
     28         89.125594   0.000000
     29         93.232272   0.000000
     30         93.955807   0.000000
     31         95.444282   0.000000
     32         95.444290   0.000000
 
  0.2000000E+00  0.0000000E+00  0.0000000E+00  0.2962963E-03
      1         -0.464680   1.000000
      2          4.174152   1.000000
      3          4.544552   1.000000
      4          4.544552   1.000000
      5          5.190973   1.000000
      6          5.190973   1.000000
      7         22.124599   0.000000
      8         30.023790   0.000000
      9         30.320734   0.000000
     10         30.320741   0.000000
     11         36.631461   0.000000
     12         36.731242   0.000000
     13         36.731244   0.000000
     14         39.641115   0.000000
     15         39.641127   0.000000
     16         44.550445   0.000000
     17         48.304633   0.000000
     18         53.724737   0.000000
     19         53.724743   0.000000
     20         63.369301   0.000000
     21         69.204420   0.000000
     22         69.204431   0.000000
     23         76.742361   0.000000
     24         79.064444   0.000000
     25         85.568968   0.000000
     26         85.568973   0.000000
     27         89.127657   0.000000
     28         89.127659   0.000000
     29         93.037196   0.000000
     30         93.444740   0.000000
     31         94.929136   0.000000
     32         94.929142   0.000000
 
  0.2333333E+00  0.0000000E+00  0.0000000E+00  0.2962963E-03
      1         -0.000773   1.000000
      2          4.146659   1.000000
      3          4.547098   1.000000
      4          4.547098   1.000000
      5          5.239056   1.000000
      6          5.239057   1.000000
      7         20.467482   0.000000
      8         29.796888   0.000000
      9         30.034153   0.000000
     10         30.034158   0.000000
     11         35.957538   0.000000
     12         35.957542   0.000000
     13         36.661642   0.000000
     14         40.591117   0.000000
     15         40.591127   0.000000
     16         45.332429   0.000000
     17         50.583442   0.000000
     18         55.404204   0.000000
     19         55.404210   0.000000
     20         64.409684   0.000000
     21         67.199189   0.000000
     22         67.199200   0.000000
     23         74.884083   0.000000
     24         79.432650   0.000000
     25         85.921012   0.000000
     26         85.921017   0.000000
     27         88.887492   0.000000
     28         88.887495   0.000000
     29         92.406689   0.000000
     30         93.067848   0.000000
     31         93.481874   0.000000
     32         93.481879   0.000000
 
  0.2666667E+00  0.0000000E+00  0.0000000E+00  0.2962963E-03
      1          0.499806   1.000000
      2          4.154254   1.000000
      3          4.531398   1.000000
      4          4.531398   1.000000
      5          5.308915   1.000000
      6          5.308915   1.000000
      7         18.863438   0.000000
      8         29.540839   0.000000
      9         29.792354   0.000000
     10         29.792359   0.000000
     11         35.169803   0.000000
     12         35.169809   0.000000
     13         36.738656   0.000000
     14         41.703357   0.000000
     15         41.703366   0.000000
     16         46.149438   0.000000
     17         53.002562   0.000000
     18         57.121134   0.000000
     19         57.121140   0.000000
     20         65.220302   0.000000
     21         65.220312   0.000000
     22         65.231390   0.000000
     23         73.352451   0.000000
     24         79.840793   0.000000
     25         86.177164   0.000000
     26         86.177171   0.000000
     27         88.189213   0.000000
     28         88.189215   0.000000
     29         91.515675   0.000000
     30         92.262517   0.000000
     31         92.262520   0.000000
     32         92.548287   0.000000
 
  0.3000000E+00  0.0000000E+00  0.0000000E+00  0.2962963E-03
      1          1.008282   1.000000
      2          4.223938   1.000000
      3          4.503076   1.000000
      4          4.503076   1.000000
      5          5.392550   1.000000
      6          5.392551   1.000000
      7         17.322373   0.000000
      8         29.273412   0.000000
      9         29.594616   0.000000
     10         29.594621   0.000000
     11         34.438091   0.000000
     12         34.438097   0.000000
     13         36.847657   0.000000
     14         42.910090   0.000000
     15         42.910098   0.000000
     16         47.036678   0.000000
     17         55.521665   0.000000
     18         58.845049   0.000000
     19         58.845055   0.000000
     20         63.309100   0.000000
     21         63.309110   0.000000
     22         65.482043   0.000000
     23         72.487298   0.000000
     24         80.278254   0.000000
     25         85.595726   0.000000
     26         85.595736   0.000000
     27         87.605257   0.000000
     28         87.605258   0.000000
     29         90.114301   0.000000
     30         91.735565   0.000000
     31         91.735568   0.000000
     32         91.813064   0.000000
 
  0.3333333E+00  0.0000000E+00  0.0000000E+00  0.2962963E-03
      1          1.480728   1.000000
      2          4.394449   1.000000
      3          4.468781   1.000000
      4          4.468781   1.000000
      5          5.480641   1.000000
      6          5.480642   1.000000
      7         15.855501   0.000000
      8         29.013692   0.000000
      9         29.439069   0.000000
     10         29.439073   0.000000
     11         33.787415   0.000000
     12         33.787423   0.000000
     13         36.970405   0.000000
     14         44.187511   0.000000
     15         44.187519   0.000000
     16         48.000931   0.000000
     17         58.123347   0.000000
     18         60.258828   0.000000
     19         60.258836   0.000000
     20         61.786473   0.000000
     21         61.786480   0.000000
     22         64.890164   0.000000
     23         72.541577   0.000000
     24         80.730035   0.000000
     25         83.801891   0.000000
     26         83.801900   0.000000
     27         87.834176   0.000000
     28         87.835418   0.000000
     29         87.835420   0.000000
     30         90.941744   0.000000
     31         91.646915   0.000000
     32         91.646916   0.000000
 
  0.3666667E+00  0.0000000E+00  0.0000000E+00  0.2962963E-03
      1          1.865038   1.000000
      2          4.434177   1.000000
      3          4.434177   1.000000
      4          4.706444   1.000000
      5          5.564791   1.000000
      6          5.564792   1.000000
      7         14.479074   0.000000
      8         28.778947   0.000000
      9         29.322824   0.000000
     10         29.322827   0.000000
     11         33.232303   0.000000
     12         33.232311   0.000000
     13         37.090410   0.000000
     14         45.520487   0.000000
     15         45.520494   0.000000
     16         49.030220   0.000000
     17         59.253942   0.000000
     18         59.253953   0.000000
     19         60.797092   0.000000
     20         62.760135   0.000000
     21         62.760140   0.000000
     22         63.691565   0.000000
     23         73.255533   0.000000
     24         81.175109   0.000000
     25         81.696282   0.000000
     26         81.696292   0.000000
     27         84.980050   0.000000
     28         88.256587   0.000000
     29         88.256589   0.000000
     30         90.043665   0.000000
     31         91.738399   0.000000
     32         91.738400   0.000000
 
  0.4000000E+00  0.0000000E+00  0.0000000E+00  0.2962963E-03
      1          2.129966   1.000000
      2          4.403383   1.000000
      3          4.403384   1.000000
      4          5.167031   1.000000
      5          5.637855   1.000000
      6          5.637856   1.000000
      7         13.220893   0.000000
      8         28.582910   0.000000
      9         29.241714   0.000000
     10         29.241717   0.000000
     11         32.784232   0.000000
     12         32.784241   0.000000
     13         37.194851   0.000000
     14         46.888697   0.000000
     15         46.888703   0.000000
     16         50.087877   0.000000
     17         57.555603   0.000000
     18         57.555613   0.000000
     19         62.288257   0.000000
     20         63.531458   0.000000
     21         64.487842   0.000000
     22         64.487847   0.000000
     23         74.192003   0.000000
     24         79.591775   0.000000
     25         79.591785   0.000000
     26         81.584776   0.000000
     27         81.969437   0.000000
     28         88.672346   0.000000
     29         88.672348   0.000000
     30         89.166344   0.000000
     31         91.892007   0.000000
     32         91.892008   0.000000
 
  0.4333333E+00  0.0000000E+00  0.0000000E+00  0.2962963E-03
      1          2.285716   1.000000
      2          4.379395   1.000000
      3          4.379395   1.000000
      4          5.694221   1.000000
      5          5.694222   1.000000
      6          5.714105   1.000000
      7         12.135634   0.000000
      8         28.435894   0.000000
      9         29.190394   0.000000
     10         29.190397   0.000000
     11         32.453824   0.000000
     12         32.453833   0.000000
     13         37.274810   0.000000
     14         48.248717   0.000000
     15         48.248723   0.000000
     16         51.094201   0.000000
     17         55.926675   0.000000
     18         55.926686   0.000000
     19         60.958939   0.000000
     20         66.167926   0.000000
     21         66.167929   0.000000
     22         66.303089   0.000000
     23         75.003558   0.000000
     24         77.647839   0.000000
     25         77.647850   0.000000
     26         79.038848   0.000000
     27         81.922623   0.000000
     28         88.388580   0.000000
     29         89.016045   0.000000
     30         89.016047   0.000000
     31         91.755572   0.000000
     32         92.047249   0.000000
 
  0.4666667E+00  0.0000000E+00  0.0000000E+00  0.2962963E-03
      1          2.363082   1.000000
      2          4.364249   1.000000
      3          4.364250   1.000000
      4          5.729742   1.000000
      5          5.729743   1.000000
      6          6.203892   1.000000
      7         11.338225   0.000000
      8         28.344999   0.000000
      9         29.162953   0.000000
     10         29.162955   0.000000
     11         32.250716   0.000000
     12         32.250726   0.000000
     13         37.324773   0.000000
     14         49.465632   0.000000
     15         49.465637   0.000000
     16         51.886420   0.000000
     17         54.543488   0.000000
     18         54.543501   0.000000
     19         59.950569   0.000000
     20         67.546945   0.000000
     21         67.546948   0.000000
     22         69.025145   0.000000
     23         74.932844   0.000000
     24         76.107378   0.000000
     25         76.107390   0.000000
     26         76.877197   0.000000
     27         82.148347   0.000000
     28         87.833937   0.000000
     29         89.243474   0.000000
     30         89.243476   0.000000
     31         91.582559   0.000000
     32         92.161291   0.000000
 
  0.5000000E+00  0.0000000E+00  0.0000000E+00  0.1481481E-03
      1          2.386134   1.000000
      2          4.359078   1.000000
      3          4.359078   1.000000
      4          5.741870   1.000000
      5          5.741871   1.000000
      6          6.413916   1.000000
      7         11.028284   0.000000
      8         28.314258   0.000000
      9         29.154464   0.000000
     10         29.154466   0.000000
     11         32.182109   0.000000
     12         32.182119   0.000000
     13         37.341735   0.000000
     14         50.059904   0.000000
     15         50.059907   0.000000
     16         52.204322   0.000000
     17         53.893317   0.000000
     18         53.893330   0.000000
     19         59.557566   0.000000
     20         68.136382   0.000000
     21         68.136384   0.000000
     22         70.835222   0.000000
     23         73.595371   0.000000
     24         75.463591   0.000000
     25         75.463604   0.000000
     26         76.589094   0.000000
     27         82.228108   0.000000
     28         87.628960   0.000000
     29         89.323177   0.000000
     30         89.323179   0.000000
     31         91.526141   0.000000
     32         92.203263   0.000000
 
  0.3333333E-01  0.3333333E-01  0.0000000E+00  0.2222222E-03
      1         -1.797470   1.000000
      2          4.372390   1.000000
      3          4.400482   1.000000
      4          4.400482   1.000000
      5          5.178198   1.000000
      6          5.198079   1.000000
      7         29.612494   0.000000
      8         31.691131   0.000000
      9         31.691136   0.000000
     10         32.086139   0.000000
     11         35.108777   0.000000
     12         35.448919   0.000000
     13         35.448921   0.000000
     14         38.723844   0.000000
     15         41.984076   0.000000
     16         43.292782   0.000000
     17         43.292794   0.000000
     18         45.771028   0.000000
     19         47.056359   0.000000
     20         59.547760   0.000000
     21         77.326431   0.000000
     22         77.830826   0.000000
     23         77.830839   0.000000
     24         84.921869   0.000000
     25         85.900515   0.000000
     26         85.900515   0.000000
     27         87.447271   0.000000
     28         87.983693   0.000000
     29         91.096311   0.000000
     30         91.657851   0.000000
     31         91.657856   0.000000
     32         95.721698   0.000000
 
  0.6666667E-01  0.3333333E-01  0.0000000E+00  0.8888889E-03
      1         -1.704319   1.000000
      2          4.350743   1.000000
      3          4.418356   1.000000
      4          4.419925   1.000000
      5          5.161502   1.000000
      6          5.201088   1.000000
      7         29.102530   0.000000
      8         30.787060   0.000000
      9         31.167662   0.000000
     10         32.187473   0.000000
     11         35.159899   0.000000
     12         36.055057   0.000000
     13         36.394080   0.000000
     14         39.037500   0.000000
     15         41.140729   0.000000
     16         42.818619   0.000000
     17         43.482547   0.000000
     18         46.430431   0.000000
     19         48.172764   0.000000
     20         59.857750   0.000000
     21         76.322450   0.000000
     22         77.271968   0.000000
     23         77.807142   0.000000
     24         84.239269   0.000000
     25         85.003765   0.000000
     26         85.430401   0.000000
     27         88.282224   0.000000
     28         88.750337   0.000000
     29         91.351240   0.000000
     30         92.286424   0.000000
     31         92.360685   0.000000
     32         95.508025   0.000000
 
  0.1000000E+00  0.3333333E-01  0.0000000E+00  0.8888889E-03
      1         -1.532463   1.000000
      2          4.316380   1.000000
      3          4.447412   1.000000
      4          4.451008   1.000000
      5          5.141540   1.000000
      6          5.200680   1.000000
      7         27.796599   0.000000
      8         30.269040   0.000000
      9         30.659089   0.000000
     10         32.303654   0.000000
     11         35.251225   0.000000
     12         36.742632   0.000000
     13         37.007157   0.000000
     14         39.402091   0.000000
     15         40.940316   0.000000
     16         41.871849   0.000000
     17         43.863664   0.000000
     18         47.709214   0.000000
     19         49.485010   0.000000
     20         60.412825   0.000000
     21         74.804597   0.000000
     22         76.031067   0.000000
     23         77.917097   0.000000
     24         83.389843   0.000000
     25         84.004916   0.000000
     26         85.146888   0.000000
     27         88.914057   0.000000
     28         89.312688   0.000000
     29         92.081556   0.000000
     30         93.111642   0.000000
     31         93.475918   0.000000
     32         95.139305   0.000000
 
  0.1333333E+00  0.3333333E-01  0.0000000E+00  0.8888889E-03
      1         -1.284068   1.000000
      2          4.271512   1.000000
      3          4.484280   1.000000
      4          4.488386   1.000000
      5          5.123296   1.000000
      6          5.201420   1.000000
      7         26.141428   0.000000
      8         30.008051   0.000000
      9         30.188994   0.000000
     10         32.304639   0.000000
     11         35.367674   0.000000
     12         37.329295   0.000000
     13         37.433183   0.000000
     14         38.797920   0.000000
     15         40.947111   0.000000
     16         42.199770   0.000000
     17         44.520679   0.000000
     18         49.168080   0.000000
     19         50.914964   0.000000
     20         61.180425   0.000000
     21         73.011651   0.000000
     22         74.366446   0.000000
     23         78.099684   0.000000
     24         81.563844   0.000000
     25         83.991021   0.000000
     26         85.097086   0.000000
     27         89.268211   0.000000
     28         89.582820   0.000000
     29         92.758880   0.000000
     30         94.112833   0.000000
     31         94.669045   0.000000
     32         94.721859   0.000000
 
  0.1666667E+00  0.3333333E-01  0.0000000E+00  0.8888889E-03
      1         -0.962742   1.000000
      2          4.221243   1.000000
      3          4.521083   1.000000
      4          4.524378   1.000000
      5          5.114888   1.000000
      6          5.209964   1.000000
      7         24.422978   0.000000
      8         29.767356   0.000000
      9         29.785864   0.000000
     10         32.193830   0.000000
     11         35.342587   0.000000
     12         37.775048   0.000000
     13         37.912437   0.000000
     14         38.077559   0.000000
     15         40.339670   0.000000
     16         43.523176   0.000000
     17         45.728833   0.000000
     18         50.716104   0.000000
     19         52.432320   0.000000
     20         62.113678   0.000000
     21         71.078272   0.000000
     22         72.493541   0.000000
     23         78.343808   0.000000
     24         79.588032   0.000000
     25         84.178286   0.000000
     26         85.224613   0.000000
     27         89.439452   0.000000
     28         89.714423   0.000000
     29         93.076321   0.000000
     30         94.073707   0.000000
     31         94.957908   0.000000
     32         95.687924   0.000000
 
  0.2000000E+00  0.3333333E-01  0.0000000E+00  0.8888889E-03
      1         -0.574265   1.000000
      2          4.172985   1.000000
      3          4.546953   1.000000
      4          4.550210   1.000000
      5          5.126939   1.000000
      6          5.233860   1.000000
      7         22.714774   0.000000
      8         29.398856   0.000000
      9         29.562463   0.000000
     10         31.984025   0.000000
     11         35.104161   0.000000
     12         37.527506   0.000000
     13         37.752422   0.000000
     14         38.461130   0.000000
     15         40.498108   0.000000
     16         44.468242   0.000000
     17         47.587371   0.000000
     18         52.327173   0.000000
     19         54.022171   0.000000
     20         63.145440   0.000000
     21         69.084220   0.000000
     22         70.543252   0.000000
     23         77.584622   0.000000
     24         78.644102   0.000000
     25         84.467839   0.000000
     26         85.482513   0.000000
     27         89.454178   0.000000
     28         89.747998   0.000000
     29         93.043394   0.000000
     30         93.492660   0.000000
     31         94.672033   0.000000
     32         95.801907   0.000000
 
  0.2333333E+00  0.3333333E-01  0.0000000E+00  0.8888889E-03
      1         -0.127686   1.000000
      2          4.137123   1.000000
      3          4.552839   1.000000
      4          4.559241   1.000000
      5          5.167881   1.000000
      6          5.278174   1.000000
      7         21.042512   0.000000
      8         29.086000   0.000000
      9         29.335269   0.000000
     10         31.689246   0.000000
     11         34.691257   0.000000
     12         37.101561   0.000000
     13         37.218866   0.000000
     14         39.334536   0.000000
     15         41.281471   0.000000
     16         45.275625   0.000000
     17         49.787464   0.000000
     18         53.988849   0.000000
     19         55.674905   0.000000
     20         64.157346   0.000000
     21         67.079060   0.000000
     22         68.612592   0.000000
     23         75.656499   0.000000
     24         78.995270   0.000000
     25         84.793099   0.000000
     26         85.837643   0.000000
     27         89.234409   0.000000
     28         89.575564   0.000000
     29         92.584667   0.000000
     30         92.814976   0.000000
     31         93.523631   0.000000
     32         94.700216   0.000000
 
  0.2666667E+00  0.3333333E-01  0.0000000E+00  0.8888889E-03
      1          0.362143   1.000000
      2          4.128517   1.000000
      3          4.537620   1.000000
      4          4.550181   1.000000
      5          5.237919   1.000000
      6          5.342199   1.000000
      7         19.419643   0.000000
      8         28.830516   0.000000
      9         29.109312   0.000000
     10         31.328053   0.000000
     11         34.196325   0.000000
     12         36.340201   0.000000
     13         37.111558   0.000000
     14         40.345626   0.000000
     15         42.312475   0.000000
     16         46.100834   0.000000
     17         52.152278   0.000000
     18         55.688684   0.000000
     19         57.382273   0.000000
     20         64.801121   0.000000
     21         65.097960   0.000000
     22         66.933633   0.000000
     23         73.956995   0.000000
     24         79.390261   0.000000
     25         85.038639   0.000000
     26         86.262614   0.000000
     27         88.560738   0.000000
     28         88.855549   0.000000