       N       E                     dE             d eps       ncg     rms          rms(c)
DAV:   1    -0.697854671713E+00   -0.69785E+00   -0.60733E+03 58592   0.573E+02
DAV:   2    -0.462139229326E+01   -0.39235E+01   -0.38773E+01 67232   0.255E+01
DAV:   3    -0.462302302180E+01   -0.16307E-02   -0.16307E-02 60480   0.611E-01
DAV:   4    -0.462302309274E+01   -0.70937E-07   -0.71198E-07 78528   0.266E-03
DAV:   5    -0.462302309330E+01   -0.55616E-09   -0.14074E-12 59840   0.135E-06    0.765E+00
DAV:   6    -0.412373635550E+01    0.49929E+00   -0.18484E+01 67072   0.271E+01    0.402E+00
DAV:   7    -0.374039799624E+01    0.38334E+00   -0.29002E+00 71872   0.106E+01    0.563E-01
DAV:   8    -0.372990510237E+01    0.10493E-01   -0.26664E-03 75072   0.339E-01    0.308E-01
DAV:   9    -0.372824548169E+01    0.16596E-02   -0.12982E-02 72192   0.673E-01    0.312E-02
DAV:  10    -0.372824424899E+01    0.12327E-05   -0.28632E-05 53376   0.330E-02    0.106E-02
DAV:  11    -0.372824287496E+01    0.13740E-05   -0.33524E-06 77728   0.111E-02    0.219E-04
DAV:  12    -0.372824293792E+01   -0.62957E-07   -0.37353E-09 48832   0.263E-04    0.101E-04
DAV:  13    -0.372824298540E+01   -0.47487E-07   -0.15632E-09 89472   0.161E-04    0.738E-06
DAV:  14    -0.372824298303E+01    0.23747E-08   -0.39553E-13 39552   0.417E-06    0.534E-06
DAV:  15    -0.372824298306E+01   -0.26603E-10   -0.13653E-12 28160   0.457E-06
   1 F= -.37282430E+01 E0= -.37281989E+01  d E =-.881102E-04
