 vasp.6.4.2 20Jul23 (build Oct 16 2024 22:45:58) complex                        
  
 executed on             LinuxIFC date 2025.02.15  11:43:48
 running   32 mpi-ranks, on    2 nodes
 distrk:  each k-point on   32 cores,    1 groups
 distr:  one band on NCORE=   1 cores,   32 groups


--------------------------------------------------------------------------------------------------------


 INCAR:
   SYSTEM = Cu FCC
   PREC = Accurate
   EDIFF = 1E-10
   EDIFFG = -1E-5
   ISMEAR = 0
   SIGMA = 0.03
   GGA = PE
   ENCUT = 520
   NSW = 0
   IBRION = -1
   ISIF = 0
   LWAVE = .FALSE.
   LCHARG = .FALSE.
   LORBIT = 11

 POTCAR:    PAW_PBE Cu 22Jun2005                  
 -----------------------------------------------------------------------------
|                                                                             |
|           W    W    AA    RRRRR   N    N  II  N    N   GGGG   !!!           |
|           W    W   A  A   R    R  NN   N  II  NN   N  G    G  !!!           |
|           W    W  A    A  R    R  N N  N  II  N N  N  G       !!!           |
|           W WW W  AAAAAA  RRRRR   N  N N  II  N  N N  G  GGG   !            |
|           WW  WW  A    A  R   R   N   NN  II  N   NN  G    G                |
|           W    W  A    A  R    R  N    N  II  N    N   GGGG   !!!           |
|                                                                             |
|     For optimal performance we recommend to set                             |
|       NCORE = 2 up to number-of-cores-per-socket                            |
|     NCORE specifies how many cores store one orbital (NPAR=cpu/NCORE).      |
|     This setting can greatly improve the performance of VASP for DFT.       |
|     The default, NCORE=1 might be grossly inefficient on modern             |
|     multi-core architectures or massively parallel machines. Do your        |
|     own testing! More info at https://www.vasp.at/wiki/index.php/NCORE      |
|     Unfortunately you need to use the default for GW and RPA                |
|     calculations (for HF NCORE is supported but not extensively tested      |
|     yet).                                                                   |
|                                                                             |
 -----------------------------------------------------------------------------

 POTCAR:    PAW_PBE Cu 22Jun2005                  
   SHA256 =  0e71e558f37a4e8407882b4609ceaae59938afaad9ced71dfe8490308a0ab630 Cu/POTCAR             
   COPYR  = (c) Copyright 22Jun2005 Georg Kresse                                                    
   COPYR  = This file is part of the software VASP. Any use, copying, and all other rights are regul
   COPYR  = If you do not have a valid VASP license, you may not use, copy or distribute this file. 
   VRHFIN =Cu: d10 p1                                                                               
   LEXCH  = PE                                                                                      
   EATOM  =  1390.9808 eV,  102.2342 Ry                                                             
                                                                                                    
   TITEL  = PAW_PBE Cu 22Jun2005                                                                    
   LULTRA =        F    use ultrasoft PP ?                                                          
   IUNSCR =        1    unscreen: 0-lin 1-nonlin 2-no                                               
   RPACOR =    2.000    partial core radius                                                         
   POMASS =   63.546; ZVAL   =   11.000    mass and valenz                                          
   RCORE  =    2.300    outmost cutoff radius                                                       
   RWIGS  =    2.200; RWIGS  =    1.164    wigner-seitz radius (au A)                               
   ENMAX  =  295.446; ENMIN  =  221.585 eV                                                          
   ICORE  =        3    local potential                                                             
   LCOR   =        T    correct aug charges                                                         
   LPAW   =        T    paw PP                                                                      
   EAUG   =  586.980                                                                                
   DEXC   =    0.000                                                                                
   RMAX   =    2.344    core radius for proj-oper                                                   
   RAUG   =    1.300    factor for augmentation sphere                                              
   RDEP   =    2.302    radius for radial grids                                                     
   RDEPT  =    1.771    core radius for aug-charge                                                  
                                                                                                    
   Atomic configuration                                                                             
    9 entries                                                                                       
     n  l   j            E        occ.                                                              
     1  0  0.50     -8850.2468   2.0000                                                             
     2  0  0.50     -1062.3498   2.0000                                                             
     2  1  1.50      -916.8226   6.0000                                                             
     3  0  0.50      -114.6929   2.0000                                                             
     3  1  1.50       -72.1325   6.0000                                                             
     3  2  2.50        -5.0394  10.0000                                                             
     4  0  0.50        -4.6097   1.0000                                                             
     4  1  0.50        -4.0817   0.0000                                                             
     4  3  2.50        -1.3606   0.0000                                                             
   Description                                                                                      
     l       E           TYP  RCUT    TYP  RCUT                                                     
     2     -5.0393973     23  2.200                                                                 
     2     10.8846608     23  2.200                                                                 
     0     -4.6097109     23  2.200                                                                 
     0      8.2520465     23  2.200                                                                 
     1     -2.7211652     23  2.200                                                                 
     1     21.7055443     23  2.200                                                                 
     3      2.7211652     23  2.300                                                                 
  local pseudopotential read in
  partial core-charges read in
  partial kinetic energy density read in
  atomic valenz-charges read in
  non local Contribution for L=           2  read in
    real space projection operators read in
  non local Contribution for L=           2  read in
    real space projection operators read in
  non local Contribution for L=           0  read in
    real space projection operators read in
  non local Contribution for L=           0  read in
    real space projection operators read in
  non local Contribution for L=           1  read in
    real space projection operators read in
  non local Contribution for L=           1  read in
    real space projection operators read in
    PAW grid and wavefunctions read in
 
   number of l-projection  operators is LMAX  =           6
   number of lm-projection operators is LMMAX =          18
 
  PAW_PBE Cu 22Jun2005                  :
 energy of atom  1       EATOM=-1390.9808
 kinetic energy error for atom=    0.0037 (will be added to EATOM!!)
 
 
 POSCAR: Copper  [FCC,FCC,cF4] (STD_PRIM doi:10.1
  positions in direct lattice
  velocities in cartesian coordinates
 exchange correlation table for  LEXCH =        8
   RHO(1)=    0.500       N(1)  =     2000
   RHO(2)=  100.500       N(2)  =     4000

 VTST: version 4.1, (05/19/21)

 CHAIN: initializing optimizer
 
 OPT: Using VASP Dynamics algorithm
 CHAIN: Read ICHAIN            0
 
 POSCAR: Copper  [FCC,FCC,cF4] (STD_PRIM doi:10.1
  positions in direct lattice
  velocities in cartesian coordinates
 


--------------------------------------------------------------------------------------------------------


 ion  position               nearest neighbor table
   1  0.000  0.000  0.000-
 
  LATTYP: Found a face centered cubic cell.
 ALAT       =     3.6368206731
  
  Lattice vectors:
  
 A1 = (   0.0000000000,   1.8184103366,   1.8184103366)
 A2 = (   1.8184103366,   0.0000000000,   1.8184103366)
 A3 = (   1.8184103366,   1.8184103366,   0.0000000000)


Analysis of symmetry for initial positions (statically):
=====================================================================
 Subroutine PRICEL returns:
 Original cell was already a primitive cell.
 

 Routine SETGRP: Setting up the symmetry group for a 
 face centered cubic supercell.


 Subroutine GETGRP returns: Found 48 space group operations
 (whereof 48 operations were pure point group operations)
 out of a pool of 48 trial point group operations.


The static configuration has the point symmetry O_h .


Analysis of symmetry for dynamics (positions and initial velocities):
=====================================================================
 Subroutine PRICEL returns:
 Original cell was already a primitive cell.
 

 Routine SETGRP: Setting up the symmetry group for a 
 face centered cubic supercell.


 Subroutine GETGRP returns: Found 48 space group operations
 (whereof 48 operations were pure point group operations)
 out of a pool of 48 trial point group operations.


The dynamic configuration has the point symmetry O_h .


 Subroutine INISYM returns: Found 48 space group operations
 (whereof 48 operations are pure point group operations),
 and found     1 'primitive' translations


----------------------------------------------------------------------------------------

                                     Primitive cell                                     

  volume of cell :      12.0256

  direct lattice vectors                    reciprocal lattice vectors
     0.000000000  1.818410337  1.818410337    -0.274965441  0.274965441  0.274965441
     1.818410337  0.000000000  1.818410337     0.274965441 -0.274965441  0.274965441
     1.818410337  1.818410337  0.000000000     0.274965441  0.274965441 -0.274965441

  length of vectors
     2.571620560  2.571620560  2.571620560     0.476254114  0.476254114  0.476254114

  position of ions in fractional coordinates (direct lattice)
     0.000000000  0.000000000  0.000000000

  ion indices of the primitive-cell ions
   primitive index   ion index
                 1           1

----------------------------------------------------------------------------------------

 
 
 KPOINTS: KPOINTS                                 

Automatic generation of k-mesh.
 Grid dimensions read from file:
 generate k-points for:   30   30   30

 Generating k-lattice:

  Cartesian coordinates                     Fractional coordinates (reciprocal lattice)
    -0.009165515  0.009165515  0.009165515     0.033333333  0.000000000  0.000000000
     0.009165515 -0.009165515  0.009165515     0.000000000  0.033333333  0.000000000
     0.009165515  0.009165515 -0.009165515     0.000000000  0.000000000  0.033333333

  Length of vectors
     0.015875137  0.015875137  0.015875137

  Shift w.r.t. Gamma in fractional coordinates (k-lattice)
     0.000000000  0.000000000  0.000000000

 
 Subroutine IBZKPT returns following result:
 ===========================================
 
 Found    752 irreducible k-points:
 
 Following reciprocal coordinates:
            Coordinates               Weight
  0.000000  0.000000  0.000000      1.000000
  0.033333  0.000000  0.000000      8.000000
  0.066667  0.000000  0.000000      8.000000
  0.100000  0.000000  0.000000      8.000000
  0.133333  0.000000  0.000000      8.000000
  0.166667  0.000000  0.000000      8.000000
  0.200000  0.000000  0.000000      8.000000
  0.233333  0.000000  0.000000      8.000000
  0.266667  0.000000  0.000000      8.000000
  0.300000  0.000000  0.000000      8.000000
  0.333333  0.000000  0.000000      8.000000
  0.366667  0.000000  0.000000      8.000000
  0.400000  0.000000  0.000000      8.000000
  0.433333  0.000000  0.000000      8.000000
  0.466667  0.000000  0.000000      8.000000
  0.500000  0.000000  0.000000      4.000000
  0.033333  0.033333  0.000000      6.000000
  0.066667  0.033333  0.000000     24.000000
  0.100000  0.033333  0.000000     24.000000
  0.133333  0.033333  0.000000     24.000000
  0.166667  0.033333  0.000000     24.000000
  0.200000  0.033333  0.000000     24.000000
  0.233333  0.033333  0.000000     24.000000
  0.266667  0.033333  0.000000     24.000000
  0.300000  0.033333  0.000000     24.000000
  0.333333  0.033333  0.000000     24.000000
  0.366667  0.033333  0.000000     24.000000
  0.400000  0.033333  0.000000     24.000000
  0.433333  0.033333  0.000000     24.000000
  0.466667  0.033333  0.000000     24.000000
  0.500000  0.033333  0.000000     24.000000
 -0.466667  0.033333  0.000000     24.000000
 -0.433333  0.033333  0.000000     24.000000
 -0.400000  0.033333  0.000000     24.000000
 -0.366667  0.033333  0.000000     24.000000
 -0.333333  0.033333  0.000000     24.000000
 -0.300000  0.033333  0.000000     24.000000
 -0.266667  0.033333  0.000000     24.000000
 -0.233333  0.033333  0.000000     24.000000
 -0.200000  0.033333  0.000000     24.000000
 -0.166667  0.033333  0.000000     24.000000
 -0.133333  0.033333  0.000000     24.000000
 -0.100000  0.033333  0.000000     24.000000
 -0.066667  0.033333  0.000000     24.000000
 -0.033333  0.033333  0.000000     12.000000
  0.066667  0.066667  0.000000      6.000000
  0.100000  0.066667  0.000000     24.000000
  0.133333  0.066667  0.000000     24.000000
  0.166667  0.066667  0.000000     24.000000
  0.200000  0.066667  0.000000     24.000000
  0.233333  0.066667  0.000000     24.000000
  0.266667  0.066667  0.000000     24.000000
  0.300000  0.066667  0.000000     24.000000
  0.333333  0.066667  0.000000     24.000000
  0.366667  0.066667  0.000000     24.000000
  0.400000  0.066667  0.000000     24.000000
  0.433333  0.066667  0.000000     24.000000
  0.466667  0.066667  0.000000     24.000000
  0.500000  0.066667  0.000000     24.000000
 -0.466667  0.066667  0.000000     24.000000
 -0.433333  0.066667  0.000000     24.000000
 -0.400000  0.066667  0.000000     24.000000
 -0.366667  0.066667  0.000000     24.000000
 -0.333333  0.066667  0.000000     24.000000
 -0.300000  0.066667  0.000000     24.000000
 -0.266667  0.066667  0.000000     24.000000
 -0.233333  0.066667  0.000000     24.000000
 -0.200000  0.066667  0.000000     24.000000
 -0.166667  0.066667  0.000000     24.000000
 -0.133333  0.066667  0.000000     24.000000
 -0.100000  0.066667  0.000000     24.000000
 -0.066667  0.066667  0.000000     12.000000
  0.100000  0.100000  0.000000      6.000000
  0.133333  0.100000  0.000000     24.000000
  0.166667  0.100000  0.000000     24.000000
  0.200000  0.100000  0.000000     24.000000
  0.233333  0.100000  0.000000     24.000000
  0.266667  0.100000  0.000000     24.000000
  0.300000  0.100000  0.000000     24.000000
  0.333333  0.100000  0.000000     24.000000
  0.366667  0.100000  0.000000     24.000000
  0.400000  0.100000  0.000000     24.000000
  0.433333  0.100000  0.000000     24.000000
  0.466667  0.100000  0.000000     24.000000
  0.500000  0.100000  0.000000     24.000000
 -0.466667  0.100000  0.000000     24.000000
 -0.433333  0.100000  0.000000     24.000000
 -0.400000  0.100000  0.000000     24.000000
 -0.366667  0.100000  0.000000     24.000000
 -0.333333  0.100000  0.000000     24.000000
 -0.300000  0.100000  0.000000     24.000000
 -0.266667  0.100000  0.000000     24.000000
 -0.233333  0.100000  0.000000     24.000000
 -0.200000  0.100000  0.000000     24.000000
 -0.166667  0.100000  0.000000     24.000000
 -0.133333  0.100000  0.000000     24.000000
 -0.100000  0.100000  0.000000     12.000000
  0.133333  0.133333  0.000000      6.000000
  0.166667  0.133333  0.000000     24.000000
  0.200000  0.133333  0.000000     24.000000
  0.233333  0.133333  0.000000     24.000000
  0.266667  0.133333  0.000000     24.000000
  0.300000  0.133333  0.000000     24.000000
  0.333333  0.133333  0.000000     24.000000
  0.366667  0.133333  0.000000     24.000000
  0.400000  0.133333  0.000000     24.000000
  0.433333  0.133333  0.000000     24.000000
  0.466667  0.133333  0.000000     24.000000
  0.500000  0.133333  0.000000     24.000000
 -0.466667  0.133333  0.000000     24.000000
 -0.433333  0.133333  0.000000     24.000000
 -0.400000  0.133333  0.000000     24.000000
 -0.366667  0.133333  0.000000     24.000000
 -0.333333  0.133333  0.000000     24.000000
 -0.300000  0.133333  0.000000     24.000000
 -0.266667  0.133333  0.000000     24.000000
 -0.233333  0.133333  0.000000     24.000000
 -0.200000  0.133333  0.000000     24.000000
 -0.166667  0.133333  0.000000     24.000000
 -0.133333  0.133333  0.000000     12.000000
  0.166667  0.166667  0.000000      6.000000
  0.200000  0.166667  0.000000     24.000000
  0.233333  0.166667  0.000000     24.000000
  0.266667  0.166667  0.000000     24.000000
  0.300000  0.166667  0.000000     24.000000
  0.333333  0.166667  0.000000     24.000000
  0.366667  0.166667  0.000000     24.000000
  0.400000  0.166667  0.000000     24.000000
  0.433333  0.166667  0.000000     24.000000
  0.466667  0.166667  0.000000     24.000000
  0.500000  0.166667  0.000000     24.000000
 -0.466667  0.166667  0.000000     24.000000
 -0.433333  0.166667  0.000000     24.000000
 -0.400000  0.166667  0.000000     24.000000
 -0.366667  0.166667  0.000000     24.000000
 -0.333333  0.166667  0.000000     24.000000
 -0.300000  0.166667  0.000000     24.000000
 -0.266667  0.166667  0.000000     24.000000
 -0.233333  0.166667  0.000000     24.000000
 -0.200000  0.166667  0.000000     24.000000
 -0.166667  0.166667  0.000000     12.000000
  0.200000  0.200000  0.000000      6.000000
  0.233333  0.200000  0.000000     24.000000
  0.266667  0.200000  0.000000     24.000000
  0.300000  0.200000  0.000000     24.000000
  0.333333  0.200000  0.000000     24.000000
  0.366667  0.200000  0.000000     24.000000
  0.400000  0.200000  0.000000     24.000000
  0.433333  0.200000  0.000000     24.000000
  0.466667  0.200000  0.000000     24.000000
  0.500000  0.200000  0.000000     24.000000
 -0.466667  0.200000  0.000000     24.000000
 -0.433333  0.200000  0.000000     24.000000
 -0.400000  0.200000  0.000000     24.000000
 -0.366667  0.200000  0.000000     24.000000
 -0.333333  0.200000  0.000000     24.000000
 -0.300000  0.200000  0.000000     24.000000
 -0.266667  0.200000  0.000000     24.000000
 -0.233333  0.200000  0.000000     24.000000
 -0.200000  0.200000  0.000000     12.000000
  0.233333  0.233333  0.000000      6.000000
  0.266667  0.233333  0.000000     24.000000
  0.300000  0.233333  0.000000     24.000000
  0.333333  0.233333  0.000000     24.000000
  0.366667  0.233333  0.000000     24.000000
  0.400000  0.233333  0.000000     24.000000
  0.433333  0.233333  0.000000     24.000000
  0.466667  0.233333  0.000000     24.000000
  0.500000  0.233333  0.000000     24.000000
 -0.466667  0.233333  0.000000     24.000000
 -0.433333  0.233333  0.000000     24.000000
 -0.400000  0.233333  0.000000     24.000000
 -0.366667  0.233333  0.000000     24.000000
 -0.333333  0.233333  0.000000     24.000000
 -0.300000  0.233333  0.000000     24.000000
 -0.266667  0.233333  0.000000     24.000000
 -0.233333  0.233333  0.000000     12.000000
  0.266667  0.266667  0.000000      6.000000
  0.300000  0.266667  0.000000     24.000000
  0.333333  0.266667  0.000000     24.000000
  0.366667  0.266667  0.000000     24.000000
  0.400000  0.266667  0.000000     24.000000
  0.433333  0.266667  0.000000     24.000000
  0.466667  0.266667  0.000000     24.000000
  0.500000  0.266667  0.000000     24.000000
 -0.466667  0.266667  0.000000     24.000000
 -0.433333  0.266667  0.000000     24.000000
 -0.400000  0.266667  0.000000     24.000000
 -0.366667  0.266667  0.000000     24.000000
 -0.333333  0.266667  0.000000     24.000000
 -0.300000  0.266667  0.000000     24.000000
 -0.266667  0.266667  0.000000     12.000000
  0.300000  0.300000  0.000000      6.000000
  0.333333  0.300000  0.000000     24.000000
  0.366667  0.300000  0.000000     24.000000
  0.400000  0.300000  0.000000     24.000000
  0.433333  0.300000  0.000000     24.000000
  0.466667  0.300000  0.000000     24.000000
  0.500000  0.300000  0.000000     24.000000
 -0.466667  0.300000  0.000000     24.000000
 -0.433333  0.300000  0.000000     24.000000
 -0.400000  0.300000  0.000000     24.000000
 -0.366667  0.300000  0.000000     24.000000
 -0.333333  0.300000  0.000000     24.000000
 -0.300000  0.300000  0.000000     12.000000
  0.333333  0.333333  0.000000      6.000000
  0.366667  0.333333  0.000000     24.000000
  0.400000  0.333333  0.000000     24.000000
  0.433333  0.333333  0.000000     24.000000
  0.466667  0.333333  0.000000     24.000000
  0.500000  0.333333  0.000000     24.000000
 -0.466667  0.333333  0.000000     24.000000
 -0.433333  0.333333  0.000000     24.000000
 -0.400000  0.333333  0.000000     24.000000
 -0.366667  0.333333  0.000000     24.000000
 -0.333333  0.333333  0.000000     12.000000
  0.366667  0.366667  0.000000      6.000000
  0.400000  0.366667  0.000000     24.000000
  0.433333  0.366667  0.000000     24.000000
  0.466667  0.366667  0.000000     24.000000
  0.500000  0.366667  0.000000     24.000000
 -0.466667  0.366667  0.000000     24.000000
 -0.433333  0.366667  0.000000     24.000000
 -0.400000  0.366667  0.000000     24.000000
 -0.366667  0.366667  0.000000     12.000000
  0.400000  0.400000  0.000000      6.000000
  0.433333  0.400000  0.000000     24.000000
  0.466667  0.400000  0.000000     24.000000
  0.500000  0.400000  0.000000     24.000000
 -0.466667  0.400000  0.000000     24.000000
 -0.433333  0.400000  0.000000     24.000000
 -0.400000  0.400000  0.000000     12.000000
  0.433333  0.433333  0.000000      6.000000
  0.466667  0.433333  0.000000     24.000000
  0.500000  0.433333  0.000000     24.000000
 -0.466667  0.433333  0.000000     24.000000
 -0.433333  0.433333  0.000000     12.000000
  0.466667  0.466667  0.000000      6.000000
  0.500000  0.466667  0.000000     24.000000
 -0.466667  0.466667  0.000000     12.000000
  0.500000  0.500000  0.000000      3.000000
  0.100000  0.066667  0.033333     24.000000
  0.133333  0.066667  0.033333     48.000000
  0.166667  0.066667  0.033333     48.000000
  0.200000  0.066667  0.033333     48.000000
  0.233333  0.066667  0.033333     48.000000
  0.266667  0.066667  0.033333     48.000000
  0.300000  0.066667  0.033333     48.000000
  0.333333  0.066667  0.033333     48.000000
  0.366667  0.066667  0.033333     48.000000
  0.400000  0.066667  0.033333     48.000000
  0.433333  0.066667  0.033333     48.000000
  0.466667  0.066667  0.033333     48.000000
  0.500000  0.066667  0.033333     48.000000
 -0.466667  0.066667  0.033333     24.000000
  0.133333  0.100000  0.033333     24.000000
  0.166667  0.100000  0.033333     48.000000
  0.200000  0.100000  0.033333     48.000000
  0.233333  0.100000  0.033333     48.000000
  0.266667  0.100000  0.033333     48.000000
  0.300000  0.100000  0.033333     48.000000
  0.333333  0.100000  0.033333     48.000000
  0.366667  0.100000  0.033333     48.000000
  0.400000  0.100000  0.033333     48.000000
  0.433333  0.100000  0.033333     48.000000
  0.466667  0.100000  0.033333     48.000000
  0.500000  0.100000  0.033333     48.000000
 -0.466667  0.100000  0.033333     48.000000
 -0.433333  0.100000  0.033333     48.000000
 -0.400000  0.100000  0.033333     48.000000
 -0.366667  0.100000  0.033333     48.000000
 -0.333333  0.100000  0.033333     48.000000
 -0.300000  0.100000  0.033333     48.000000
 -0.266667  0.100000  0.033333     48.000000
 -0.233333  0.100000  0.033333     48.000000
 -0.200000  0.100000  0.033333     48.000000
 -0.166667  0.100000  0.033333     48.000000
 -0.133333  0.100000  0.033333     48.000000
 -0.100000  0.100000  0.033333     48.000000
 -0.066667  0.100000  0.033333     24.000000
  0.166667  0.133333  0.033333     24.000000
  0.200000  0.133333  0.033333     48.000000
  0.233333  0.133333  0.033333     48.000000
  0.266667  0.133333  0.033333     48.000000
  0.300000  0.133333  0.033333     48.000000
  0.333333  0.133333  0.033333     48.000000
  0.366667  0.133333  0.033333     48.000000
  0.400000  0.133333  0.033333     48.000000
  0.433333  0.133333  0.033333     48.000000
  0.466667  0.133333  0.033333     48.000000
  0.500000  0.133333  0.033333     48.000000
 -0.466667  0.133333  0.033333     48.000000
 -0.433333  0.133333  0.033333     48.000000
 -0.400000  0.133333  0.033333     48.000000
 -0.366667  0.133333  0.033333     48.000000
 -0.333333  0.133333  0.033333     48.000000
 -0.300000  0.133333  0.033333     48.000000
 -0.266667  0.133333  0.033333     48.000000
 -0.233333  0.133333  0.033333     48.000000
 -0.200000  0.133333  0.033333     48.000000
 -0.166667  0.133333  0.033333     48.000000
 -0.133333  0.133333  0.033333     48.000000
 -0.100000  0.133333  0.033333     24.000000
  0.200000  0.166667  0.033333     24.000000
  0.233333  0.166667  0.033333     48.000000
  0.266667  0.166667  0.033333     48.000000
  0.300000  0.166667  0.033333     48.000000
  0.333333  0.166667  0.033333     48.000000
  0.366667  0.166667  0.033333     48.000000
  0.400000  0.166667  0.033333     48.000000
  0.433333  0.166667  0.033333     48.000000
  0.466667  0.166667  0.033333     48.000000
  0.500000  0.166667  0.033333     48.000000
 -0.466667  0.166667  0.033333     48.000000
 -0.433333  0.166667  0.033333     48.000000
 -0.400000  0.166667  0.033333     48.000000
 -0.366667  0.166667  0.033333     48.000000
 -0.333333  0.166667  0.033333     48.000000
 -0.300000  0.166667  0.033333     48.000000
 -0.266667  0.166667  0.033333     48.000000
 -0.233333  0.166667  0.033333     48.000000
 -0.200000  0.166667  0.033333     48.000000
 -0.166667  0.166667  0.033333     48.000000
 -0.133333  0.166667  0.033333     24.000000
  0.233333  0.200000  0.033333     24.000000
  0.266667  0.200000  0.033333     48.000000
  0.300000  0.200000  0.033333     48.000000
  0.333333  0.200000  0.033333     48.000000
  0.366667  0.200000  0.033333     48.000000
  0.400000  0.200000  0.033333     48.000000
  0.433333  0.200000  0.033333     48.000000
  0.466667  0.200000  0.033333     48.000000
  0.500000  0.200000  0.033333     48.000000
 -0.466667  0.200000  0.033333     48.000000
 -0.433333  0.200000  0.033333     48.000000
 -0.400000  0.200000  0.033333     48.000000
 -0.366667  0.200000  0.033333     48.000000
 -0.333333  0.200000  0.033333     48.000000
 -0.300000  0.200000  0.033333     48.000000
 -0.266667  0.200000  0.033333     48.000000
 -0.233333  0.200000  0.033333     48.000000
 -0.200000  0.200000  0.033333     48.000000
 -0.166667  0.200000  0.033333     24.000000
  0.266667  0.233333  0.033333     24.000000
  0.300000  0.233333  0.033333     48.000000
  0.333333  0.233333  0.033333     48.000000
  0.366667  0.233333  0.033333     48.000000
  0.400000  0.233333  0.033333     48.000000
  0.433333  0.233333  0.033333     48.000000
  0.466667  0.233333  0.033333     48.000000
  0.500000  0.233333  0.033333     48.000000
 -0.466667  0.233333  0.033333     48.000000
 -0.433333  0.233333  0.033333     48.000000
 -0.400000  0.233333  0.033333     48.000000
 -0.366667  0.233333  0.033333     48.000000
 -0.333333  0.233333  0.033333     48.000000
 -0.300000  0.233333  0.033333     48.000000
 -0.266667  0.233333  0.033333     48.000000
 -0.233333  0.233333  0.033333     48.000000
 -0.200000  0.233333  0.033333     24.000000
  0.300000  0.266667  0.033333     24.000000
  0.333333  0.266667  0.033333     48.000000
  0.366667  0.266667  0.033333     48.000000
  0.400000  0.266667  0.033333     48.000000
  0.433333  0.266667  0.033333     48.000000
  0.466667  0.266667  0.033333     48.000000
  0.500000  0.266667  0.033333     48.000000
 -0.466667  0.266667  0.033333     48.000000
 -0.433333  0.266667  0.033333     48.000000
 -0.400000  0.266667  0.033333     48.000000
 -0.366667  0.266667  0.033333     48.000000
 -0.333333  0.266667  0.033333     48.000000
 -0.300000  0.266667  0.033333     48.000000
 -0.266667  0.266667  0.033333     48.000000
 -0.233333  0.266667  0.033333     24.000000
  0.333333  0.300000  0.033333     24.000000
  0.366667  0.300000  0.033333     48.000000
  0.400000  0.300000  0.033333     48.000000
  0.433333  0.300000  0.033333     48.000000
  0.466667  0.300000  0.033333     48.000000
  0.500000  0.300000  0.033333     48.000000
 -0.466667  0.300000  0.033333     48.000000
 -0.433333  0.300000  0.033333     48.000000
 -0.400000  0.300000  0.033333     48.000000
 -0.366667  0.300000  0.033333     48.000000
 -0.333333  0.300000  0.033333     48.000000
 -0.300000  0.300000  0.033333     48.000000
 -0.266667  0.300000  0.033333     24.000000
  0.366667  0.333333  0.033333     24.000000
  0.400000  0.333333  0.033333     48.000000
  0.433333  0.333333  0.033333     48.000000
  0.466667  0.333333  0.033333     48.000000
  0.500000  0.333333  0.033333     48.000000
 -0.466667  0.333333  0.033333     48.000000
 -0.433333  0.333333  0.033333     48.000000
 -0.400000  0.333333  0.033333     48.000000
 -0.366667  0.333333  0.033333     48.000000
 -0.333333  0.333333  0.033333     48.000000
 -0.300000  0.333333  0.033333     24.000000
  0.400000  0.366667  0.033333     24.000000
  0.433333  0.366667  0.033333     48.000000
  0.466667  0.366667  0.033333     48.000000
  0.500000  0.366667  0.033333     48.000000
 -0.466667  0.366667  0.033333     48.000000
 -0.433333  0.366667  0.033333     48.000000
 -0.400000  0.366667  0.033333     48.000000
 -0.366667  0.366667  0.033333     48.000000
 -0.333333  0.366667  0.033333     24.000000
  0.433333  0.400000  0.033333     24.000000
  0.466667  0.400000  0.033333     48.000000
  0.500000  0.400000  0.033333     48.000000
 -0.466667  0.400000  0.033333     48.000000
 -0.433333  0.400000  0.033333     48.000000
 -0.400000  0.400000  0.033333     48.000000
 -0.366667  0.400000  0.033333     24.000000
  0.466667  0.433333  0.033333     24.000000
  0.500000  0.433333  0.033333     48.000000
 -0.466667  0.433333  0.033333     48.000000
 -0.433333  0.433333  0.033333     48.000000
 -0.400000  0.433333  0.033333     24.000000
  0.500000  0.466667  0.033333     24.000000
 -0.466667  0.466667  0.033333     48.000000
 -0.433333  0.466667  0.033333     24.000000
 -0.466667  0.500000  0.033333     12.000000
  0.200000  0.133333  0.066667     24.000000
  0.233333  0.133333  0.066667     48.000000
  0.266667  0.133333  0.066667     48.000000
  0.300000  0.133333  0.066667     48.000000
  0.333333  0.133333  0.066667     48.000000
  0.366667  0.133333  0.066667     48.000000
  0.400000  0.133333  0.066667     48.000000
  0.433333  0.133333  0.066667     48.000000
  0.466667  0.133333  0.066667     48.000000
  0.500000  0.133333  0.066667     48.000000
 -0.466667  0.133333  0.066667     48.000000
 -0.433333  0.133333  0.066667     24.000000
  0.233333  0.166667  0.066667     24.000000
  0.266667  0.166667  0.066667     48.000000
  0.300000  0.166667  0.066667     48.000000
  0.333333  0.166667  0.066667     48.000000
  0.366667  0.166667  0.066667     48.000000
  0.400000  0.166667  0.066667     48.000000
  0.433333  0.166667  0.066667     48.000000
  0.466667  0.166667  0.066667     48.000000
  0.500000  0.166667  0.066667     48.000000
 -0.466667  0.166667  0.066667     48.000000
 -0.433333  0.166667  0.066667     48.000000
 -0.400000  0.166667  0.066667     48.000000
 -0.366667  0.166667  0.066667     48.000000
 -0.333333  0.166667  0.066667     48.000000
 -0.300000  0.166667  0.066667     48.000000
 -0.266667  0.166667  0.066667     48.000000
 -0.233333  0.166667  0.066667     48.000000
 -0.200000  0.166667  0.066667     48.000000
 -0.166667  0.166667  0.066667     48.000000
 -0.133333  0.166667  0.066667     48.000000
 -0.100000  0.166667  0.066667     24.000000
  0.266667  0.200000  0.066667     24.000000
  0.300000  0.200000  0.066667     48.000000
  0.333333  0.200000  0.066667     48.000000
  0.366667  0.200000  0.066667     48.000000
  0.400000  0.200000  0.066667     48.000000
  0.433333  0.200000  0.066667     48.000000
  0.466667  0.200000  0.066667     48.000000
  0.500000  0.200000  0.066667     48.000000
 -0.466667  0.200000  0.066667     48.000000
 -0.433333  0.200000  0.066667     48.000000
 -0.400000  0.200000  0.066667     48.000000
 -0.366667  0.200000  0.066667     48.000000
 -0.333333  0.200000  0.066667     48.000000
 -0.300000  0.200000  0.066667     48.000000
 -0.266667  0.200000  0.066667     48.000000
 -0.233333  0.200000  0.066667     48.000000
 -0.200000  0.200000  0.066667     48.000000
 -0.166667  0.200000  0.066667     48.000000
 -0.133333  0.200000  0.066667     24.000000
  0.300000  0.233333  0.066667     24.000000
  0.333333  0.233333  0.066667     48.000000
  0.366667  0.233333  0.066667     48.000000
  0.400000  0.233333  0.066667     48.000000
  0.433333  0.233333  0.066667     48.000000
  0.466667  0.233333  0.066667     48.000000
  0.500000  0.233333  0.066667     48.000000
 -0.466667  0.233333  0.066667     48.000000
 -0.433333  0.233333  0.066667     48.000000
 -0.400000  0.233333  0.066667     48.000000
 -0.366667  0.233333  0.066667     48.000000
 -0.333333  0.233333  0.066667     48.000000
 -0.300000  0.233333  0.066667     48.000000
 -0.266667  0.233333  0.066667     48.000000
 -0.233333  0.233333  0.066667     48.000000
 -0.200000  0.233333  0.066667     48.000000
 -0.166667  0.233333  0.066667     24.000000
  0.333333  0.266667  0.066667     24.000000
  0.366667  0.266667  0.066667     48.000000
  0.400000  0.266667  0.066667     48.000000
  0.433333  0.266667  0.066667     48.000000
  0.466667  0.266667  0.066667     48.000000
  0.500000  0.266667  0.066667     48.000000
 -0.466667  0.266667  0.066667     48.000000
 -0.433333  0.266667  0.066667     48.000000
 -0.400000  0.266667  0.066667     48.000000
 -0.366667  0.266667  0.066667     48.000000
 -0.333333  0.266667  0.066667     48.000000
 -0.300000  0.266667  0.066667     48.000000
 -0.266667  0.266667  0.066667     48.000000
 -0.233333  0.266667  0.066667     48.000000
 -0.200000  0.266667  0.066667     24.000000
  0.366667  0.300000  0.066667     24.000000
  0.400000  0.300000  0.066667     48.000000
  0.433333  0.300000  0.066667     48.000000
  0.466667  0.300000  0.066667     48.000000
  0.500000  0.300000  0.066667     48.000000
 -0.466667  0.300000  0.066667     48.000000
 -0.433333  0.300000  0.066667     48.000000
 -0.400000  0.300000  0.066667     48.000000
 -0.366667  0.300000  0.066667     48.000000
 -0.333333  0.300000  0.066667     48.000000
 -0.300000  0.300000  0.066667     48.000000
 -0.266667  0.300000  0.066667     48.000000
 -0.233333  0.300000  0.066667     24.000000
  0.400000  0.333333  0.066667     24.000000
  0.433333  0.333333  0.066667     48.000000
  0.466667  0.333333  0.066667     48.000000
  0.500000  0.333333  0.066667     48.000000
 -0.466667  0.333333  0.066667     48.000000
 -0.433333  0.333333  0.066667     48.000000
 -0.400000  0.333333  0.066667     48.000000
 -0.366667  0.333333  0.066667     48.000000
 -0.333333  0.333333  0.066667     48.000000
 -0.300000  0.333333  0.066667     48.000000
 -0.266667  0.333333  0.066667     24.000000
  0.433333  0.366667  0.066667     24.000000
  0.466667  0.366667  0.066667     48.000000
  0.500000  0.366667  0.066667     48.000000
 -0.466667  0.366667  0.066667     48.000000
 -0.433333  0.366667  0.066667     48.000000
 -0.400000  0.366667  0.066667     48.000000
 -0.366667  0.366667  0.066667     48.000000
 -0.333333  0.366667  0.066667     48.000000
 -0.300000  0.366667  0.066667     24.000000
  0.466667  0.400000  0.066667     24.000000
  0.500000  0.400000  0.066667     48.000000
 -0.466667  0.400000  0.066667     48.000000
 -0.433333  0.400000  0.066667     48.000000
 -0.400000  0.400000  0.066667     48.000000
 -0.366667  0.400000  0.066667     48.000000
 -0.333333  0.400000  0.066667     24.000000
  0.500000  0.433333  0.066667     24.000000
 -0.466667  0.433333  0.066667     48.000000
 -0.433333  0.433333  0.066667     48.000000
 -0.400000  0.433333  0.066667     48.000000
 -0.366667  0.433333  0.066667     24.000000
 -0.466667  0.466667  0.066667     24.000000
 -0.433333  0.466667  0.066667     48.000000
 -0.400000  0.466667  0.066667     24.000000
 -0.433333  0.500000  0.066667     12.000000
  0.300000  0.200000  0.100000     24.000000
  0.333333  0.200000  0.100000     48.000000
  0.366667  0.200000  0.100000     48.000000
  0.400000  0.200000  0.100000     48.000000
  0.433333  0.200000  0.100000     48.000000
  0.466667  0.200000  0.100000     48.000000
  0.500000  0.200000  0.100000     48.000000
 -0.466667  0.200000  0.100000     48.000000
 -0.433333  0.200000  0.100000     48.000000
 -0.400000  0.200000  0.100000     24.000000
  0.333333  0.233333  0.100000     24.000000
  0.366667  0.233333  0.100000     48.000000
  0.400000  0.233333  0.100000     48.000000
  0.433333  0.233333  0.100000     48.000000
  0.466667  0.233333  0.100000     48.000000
  0.500000  0.233333  0.100000     48.000000
 -0.466667  0.233333  0.100000     48.000000
 -0.433333  0.233333  0.100000     48.000000
 -0.400000  0.233333  0.100000     48.000000
 -0.366667  0.233333  0.100000     48.000000
 -0.333333  0.233333  0.100000     48.000000
 -0.300000  0.233333  0.100000     48.000000
 -0.266667  0.233333  0.100000     48.000000
 -0.233333  0.233333  0.100000     48.000000
 -0.200000  0.233333  0.100000     48.000000
 -0.166667  0.233333  0.100000     48.000000
 -0.133333  0.233333  0.100000     24.000000
  0.366667  0.266667  0.100000     24.000000
  0.400000  0.266667  0.100000     48.000000
  0.433333  0.266667  0.100000     48.000000
  0.466667  0.266667  0.100000     48.000000
  0.500000  0.266667  0.100000     48.000000
 -0.466667  0.266667  0.100000     48.000000
 -0.433333  0.266667  0.100000     48.000000
 -0.400000  0.266667  0.100000     48.000000
 -0.366667  0.266667  0.100000     48.000000
 -0.333333  0.266667  0.100000     48.000000
 -0.300000  0.266667  0.100000     48.000000
 -0.266667  0.266667  0.100000     48.000000
 -0.233333  0.266667  0.100000     48.000000
 -0.200000  0.266667  0.100000     48.000000
 -0.166667  0.266667  0.100000     24.000000
  0.400000  0.300000  0.100000     24.000000
  0.433333  0.300000  0.100000     48.000000
  0.466667  0.300000  0.100000     48.000000
  0.500000  0.300000  0.100000     48.000000
 -0.466667  0.300000  0.100000     48.000000
 -0.433333  0.300000  0.100000     48.000000
 -0.400000  0.300000  0.100000     48.000000
 -0.366667  0.300000  0.100000     48.000000
 -0.333333  0.300000  0.100000     48.000000
 -0.300000  0.300000  0.100000     48.000000
 -0.266667  0.300000  0.100000     48.000000
 -0.233333  0.300000  0.100000     48.000000
 -0.200000  0.300000  0.100000     24.000000
  0.433333  0.333333  0.100000     24.000000
  0.466667  0.333333  0.100000     48.000000
  0.500000  0.333333  0.100000     48.000000
 -0.466667  0.333333  0.100000     48.000000
 -0.433333  0.333333  0.100000     48.000000
 -0.400000  0.333333  0.100000     48.000000
 -0.366667  0.333333  0.100000     48.000000
 -0.333333  0.333333  0.100000     48.000000
 -0.300000  0.333333  0.100000     48.000000
 -0.266667  0.333333  0.100000     48.000000
 -0.233333  0.333333  0.100000     24.000000
  0.466667  0.366667  0.100000     24.000000
  0.500000  0.366667  0.100000     48.000000
 -0.466667  0.366667  0.100000     48.000000
 -0.433333  0.366667  0.100000     48.000000
 -0.400000  0.366667  0.100000     48.000000
 -0.366667  0.366667  0.100000     48.000000
 -0.333333  0.366667  0.100000     48.000000
 -0.300000  0.366667  0.100000     48.000000
 -0.266667  0.366667  0.100000     24.000000
  0.500000  0.400000  0.100000     24.000000
 -0.466667  0.400000  0.100000     48.000000
 -0.433333  0.400000  0.100000     48.000000
 -0.400000  0.400000  0.100000     48.000000
 -0.366667  0.400000  0.100000     48.000000
 -0.333333  0.400000  0.100000     48.000000
 -0.300000  0.400000  0.100000     24.000000
 -0.466667  0.433333  0.100000     24.000000
 -0.433333  0.433333  0.100000     48.000000
 -0.400000  0.433333  0.100000     48.000000
 -0.366667  0.433333  0.100000     48.000000
 -0.333333  0.433333  0.100000     24.000000
 -0.433333  0.466667  0.100000     24.000000
 -0.400000  0.466667  0.100000     48.000000
 -0.366667  0.466667  0.100000     24.000000
 -0.400000  0.500000  0.100000     12.000000
  0.400000  0.266667  0.133333     24.000000
  0.433333  0.266667  0.133333     48.000000
  0.466667  0.266667  0.133333     48.000000
  0.500000  0.266667  0.133333     48.000000
 -0.466667  0.266667  0.133333     48.000000
 -0.433333  0.266667  0.133333     48.000000
 -0.400000  0.266667  0.133333     48.000000
 -0.366667  0.266667  0.133333     24.000000
  0.433333  0.300000  0.133333     24.000000
  0.466667  0.300000  0.133333     48.000000
  0.500000  0.300000  0.133333     48.000000
 -0.466667  0.300000  0.133333     48.000000
 -0.433333  0.300000  0.133333     48.000000
 -0.400000  0.300000  0.133333     48.000000
 -0.366667  0.300000  0.133333     48.000000
 -0.333333  0.300000  0.133333     48.000000
 -0.300000  0.300000  0.133333     48.000000
 -0.266667  0.300000  0.133333     48.000000
 -0.233333  0.300000  0.133333     48.000000
 -0.200000  0.300000  0.133333     48.000000
 -0.166667  0.300000  0.133333     24.000000
  0.466667  0.333333  0.133333     24.000000
  0.500000  0.333333  0.133333     48.000000
 -0.466667  0.333333  0.133333     48.000000
 -0.433333  0.333333  0.133333     48.000000
 -0.400000  0.333333  0.133333     48.000000
 -0.366667  0.333333  0.133333     48.000000
 -0.333333  0.333333  0.133333     48.000000
 -0.300000  0.333333  0.133333     48.000000
 -0.266667  0.333333  0.133333     48.000000
 -0.233333  0.333333  0.133333     48.000000
 -0.200000  0.333333  0.133333     24.000000
  0.500000  0.366667  0.133333     24.000000
 -0.466667  0.366667  0.133333     48.000000
 -0.433333  0.366667  0.133333     48.000000
 -0.400000  0.366667  0.133333     48.000000
 -0.366667  0.366667  0.133333     48.000000
 -0.333333  0.366667  0.133333     48.000000
 -0.300000  0.366667  0.133333     48.000000
 -0.266667  0.366667  0.133333     48.000000
 -0.233333  0.366667  0.133333     24.000000
 -0.466667  0.400000  0.133333     24.000000
 -0.433333  0.400000  0.133333     48.000000
 -0.400000  0.400000  0.133333     48.000000
 -0.366667  0.400000  0.133333     48.000000
 -0.333333  0.400000  0.133333     48.000000
 -0.300000  0.400000  0.133333     48.000000
 -0.266667  0.400000  0.133333     24.000000
 -0.433333  0.433333  0.133333     24.000000
 -0.400000  0.433333  0.133333     48.000000
 -0.366667  0.433333  0.133333     48.000000
 -0.333333  0.433333  0.133333     48.000000
 -0.300000  0.433333  0.133333     24.000000
 -0.400000  0.466667  0.133333     24.000000
 -0.366667  0.466667  0.133333     48.000000
 -0.333333  0.466667  0.133333     24.000000
 -0.366667  0.500000  0.133333     12.000000
  0.500000  0.333333  0.166667     24.000000
 -0.466667  0.333333  0.166667     48.000000
 -0.433333  0.333333  0.166667     48.000000
 -0.400000  0.333333  0.166667     48.000000
 -0.366667  0.333333  0.166667     48.000000
 -0.333333  0.333333  0.166667     24.000000
 -0.466667  0.366667  0.166667     24.000000
 -0.433333  0.366667  0.166667     48.000000
 -0.400000  0.366667  0.166667     48.000000
 -0.366667  0.366667  0.166667     48.000000
 -0.333333  0.366667  0.166667     48.000000
 -0.300000  0.366667  0.166667     48.000000
 -0.266667  0.366667  0.166667     48.000000
 -0.233333  0.366667  0.166667     48.000000
 -0.200000  0.366667  0.166667     24.000000
 -0.433333  0.400000  0.166667     24.000000
 -0.400000  0.400000  0.166667     48.000000
 -0.366667  0.400000  0.166667     48.000000
 -0.333333  0.400000  0.166667     48.000000
 -0.300000  0.400000  0.166667     48.000000
 -0.266667  0.400000  0.166667     48.000000
 -0.233333  0.400000  0.166667     24.000000
 -0.400000  0.433333  0.166667     24.000000
 -0.366667  0.433333  0.166667     48.000000
 -0.333333  0.433333  0.166667     48.000000
 -0.300000  0.433333  0.166667     48.000000
 -0.266667  0.433333  0.166667     24.000000
 -0.366667  0.466667  0.166667     24.000000
 -0.333333  0.466667  0.166667     48.000000
 -0.300000  0.466667  0.166667     24.000000
 -0.333333  0.500000  0.166667     12.000000
 -0.400000  0.400000  0.200000     24.000000
 -0.366667  0.400000  0.200000     48.000000
 -0.333333  0.400000  0.200000     48.000000
 -0.300000  0.400000  0.200000     24.000000
 -0.366667  0.433333  0.200000     24.000000
 -0.333333  0.433333  0.200000     48.000000
 -0.300000  0.433333  0.200000     48.000000
 -0.266667  0.433333  0.200000     48.000000
 -0.233333  0.433333  0.200000     24.000000
 -0.333333  0.466667  0.200000     24.000000
 -0.300000  0.466667  0.200000     48.000000
 -0.266667  0.466667  0.200000     24.000000
 -0.300000  0.500000  0.200000     12.000000
 -0.300000  0.466667  0.233333     24.000000
 -0.266667  0.466667  0.233333     24.000000
 -0.266667  0.500000  0.233333     12.000000
 
 Following cartesian coordinates:
            Coordinates               Weight
  0.000000  0.000000  0.000000      1.000000
 -0.009166  0.009166  0.009166      8.000000
 -0.018331  0.018331  0.018331      8.000000
 -0.027497  0.027497  0.027497      8.000000
 -0.036662  0.036662  0.036662      8.000000
 -0.045828  0.045828  0.045828      8.000000
 -0.054993  0.054993  0.054993      8.000000
 -0.064159  0.064159  0.064159      8.000000
 -0.073324  0.073324  0.073324      8.000000
 -0.082490  0.082490  0.082490      8.000000
 -0.091655  0.091655  0.091655      8.000000
 -0.100821  0.100821  0.100821      8.000000
 -0.109986  0.109986  0.109986      8.000000
 -0.119152  0.119152  0.119152      8.000000
 -0.128317  0.128317  0.128317      8.000000
 -0.137483  0.137483  0.137483      4.000000
  0.000000  0.000000  0.018331      6.000000
 -0.009166  0.009166  0.027497     24.000000
 -0.018331  0.018331  0.036662     24.000000
 -0.027497  0.027497  0.045828     24.000000
 -0.036662  0.036662  0.054993     24.000000
 -0.045828  0.045828  0.064159     24.000000
 -0.054993  0.054993  0.073324     24.000000
 -0.064159  0.064159  0.082490     24.000000
 -0.073324  0.073324  0.091655     24.000000
 -0.082490  0.082490  0.100821     24.000000
 -0.091655  0.091655  0.109986     24.000000
 -0.100821  0.100821  0.119152     24.000000
 -0.109986  0.109986  0.128317     24.000000
 -0.119152  0.119152  0.137483     24.000000
 -0.128317  0.128317  0.146648     24.000000
  0.137483 -0.137483 -0.119152     24.000000
  0.128317 -0.128317 -0.109986     24.000000
  0.119152 -0.119152 -0.100821     24.000000
  0.109986 -0.109986 -0.091655     24.000000
  0.100821 -0.100821 -0.082490     24.000000
  0.091655 -0.091655 -0.073324     24.000000
  0.082490 -0.082490 -0.064159     24.000000
  0.073324 -0.073324 -0.054993     24.000000
  0.064159 -0.064159 -0.045828     24.000000
  0.054993 -0.054993 -0.036662     24.000000
  0.045828 -0.045828 -0.027497     24.000000
  0.036662 -0.036662 -0.018331     24.000000
  0.027497 -0.027497 -0.009166     24.000000
  0.018331 -0.018331  0.000000     12.000000
  0.000000  0.000000  0.036662      6.000000
 -0.009166  0.009166  0.045828     24.000000
 -0.018331  0.018331  0.054993     24.000000
 -0.027497  0.027497  0.064159     24.000000
 -0.036662  0.036662  0.073324     24.000000
 -0.045828  0.045828  0.082490     24.000000
 -0.054993  0.054993  0.091655     24.000000
 -0.064159  0.064159  0.100821     24.000000
 -0.073324  0.073324  0.109986     24.000000
 -0.082490  0.082490  0.119152     24.000000
 -0.091655  0.091655  0.128317     24.000000
 -0.100821  0.100821  0.137483     24.000000
 -0.109986  0.109986  0.146648     24.000000
 -0.119152  0.119152  0.155814     24.000000
  0.146648 -0.146648 -0.109986     24.000000
  0.137483 -0.137483 -0.100821     24.000000
  0.128317 -0.128317 -0.091655     24.000000
  0.119152 -0.119152 -0.082490     24.000000
  0.109986 -0.109986 -0.073324     24.000000
  0.100821 -0.100821 -0.064159     24.000000
  0.091655 -0.091655 -0.054993     24.000000
  0.082490 -0.082490 -0.045828     24.000000
  0.073324 -0.073324 -0.036662     24.000000
  0.064159 -0.064159 -0.027497     24.000000
  0.054993 -0.054993 -0.018331     24.000000
  0.045828 -0.045828 -0.009166     24.000000
  0.036662 -0.036662  0.000000     12.000000
  0.000000  0.000000  0.054993      6.000000
 -0.009166  0.009166  0.064159     24.000000
 -0.018331  0.018331  0.073324     24.000000
 -0.027497  0.027497  0.082490     24.000000
 -0.036662  0.036662  0.091655     24.000000
 -0.045828  0.045828  0.100821     24.000000
 -0.054993  0.054993  0.109986     24.000000
 -0.064159  0.064159  0.119152     24.000000
 -0.073324  0.073324  0.128317     24.000000
 -0.082490  0.082490  0.137483     24.000000
 -0.091655  0.091655  0.146648     24.000000
 -0.100821  0.100821  0.155814     24.000000
 -0.109986  0.109986  0.164979     24.000000
  0.155814 -0.155814 -0.100821     24.000000
  0.146648 -0.146648 -0.091655     24.000000
  0.137483 -0.137483 -0.082490     24.000000
  0.128317 -0.128317 -0.073324     24.000000
  0.119152 -0.119152 -0.064159     24.000000
  0.109986 -0.109986 -0.054993     24.000000
  0.100821 -0.100821 -0.045828     24.000000
  0.091655 -0.091655 -0.036662     24.000000
  0.082490 -0.082490 -0.027497     24.000000
  0.073324 -0.073324 -0.018331     24.000000
  0.064159 -0.064159 -0.009166     24.000000
  0.054993 -0.054993  0.000000     12.000000
  0.000000  0.000000  0.073324      6.000000
 -0.009166  0.009166  0.082490     24.000000
 -0.018331  0.018331  0.091655     24.000000
 -0.027497  0.027497  0.100821     24.000000
 -0.036662  0.036662  0.109986     24.000000
 -0.045828  0.045828  0.119152     24.000000
 -0.054993  0.054993  0.128317     24.000000
 -0.064159  0.064159  0.137483     24.000000
 -0.073324  0.073324  0.146648     24.000000
 -0.082490  0.082490  0.155814     24.000000
 -0.091655  0.091655  0.164979     24.000000
 -0.100821  0.100821  0.174145     24.000000
  0.164979 -0.164979 -0.091655     24.000000
  0.155814 -0.155814 -0.082490     24.000000
  0.146648 -0.146648 -0.073324     24.000000
  0.137483 -0.137483 -0.064159     24.000000
  0.128317 -0.128317 -0.054993     24.000000
  0.119152 -0.119152 -0.045828     24.000000
  0.109986 -0.109986 -0.036662     24.000000
  0.100821 -0.100821 -0.027497     24.000000
  0.091655 -0.091655 -0.018331     24.000000
  0.082490 -0.082490 -0.009166     24.000000
  0.073324 -0.073324  0.000000     12.000000
  0.000000  0.000000  0.091655      6.000000
 -0.009166  0.009166  0.100821     24.000000
 -0.018331  0.018331  0.109986     24.000000
 -0.027497  0.027497  0.119152     24.000000
 -0.036662  0.036662  0.128317     24.000000
 -0.045828  0.045828  0.137483     24.000000
 -0.054993  0.054993  0.146648     24.000000
 -0.064159  0.064159  0.155814     24.000000
 -0.073324  0.073324  0.164979     24.000000
 -0.082490  0.082490  0.174145     24.000000
 -0.091655  0.091655  0.183310     24.000000
  0.174145 -0.174145 -0.082490     24.000000
  0.164979 -0.164979 -0.073324     24.000000
  0.155814 -0.155814 -0.064159     24.000000
  0.146648 -0.146648 -0.054993     24.000000
  0.137483 -0.137483 -0.045828     24.000000
  0.128317 -0.128317 -0.036662     24.000000
  0.119152 -0.119152 -0.027497     24.000000
  0.109986 -0.109986 -0.018331     24.000000
  0.100821 -0.100821 -0.009166     24.000000
  0.091655 -0.091655  0.000000     12.000000
  0.000000  0.000000  0.109986      6.000000
 -0.009166  0.009166  0.119152     24.000000
 -0.018331  0.018331  0.128317     24.000000
 -0.027497  0.027497  0.137483     24.000000
 -0.036662  0.036662  0.146648     24.000000
 -0.045828  0.045828  0.155814     24.000000
 -0.054993  0.054993  0.164979     24.000000
 -0.064159  0.064159  0.174145     24.000000
 -0.073324  0.073324  0.183310     24.000000
 -0.082490  0.082490  0.192476     24.000000
  0.183310 -0.183310 -0.073324     24.000000
  0.174145 -0.174145 -0.064159     24.000000
  0.164979 -0.164979 -0.054993     24.000000
  0.155814 -0.155814 -0.045828     24.000000
  0.146648 -0.146648 -0.036662     24.000000
  0.137483 -0.137483 -0.027497     24.000000
  0.128317 -0.128317 -0.018331     24.000000
  0.119152 -0.119152 -0.009166     24.000000
  0.109986 -0.109986  0.000000     12.000000
  0.000000  0.000000  0.128317      6.000000
 -0.009166  0.009166  0.137483     24.000000
 -0.018331  0.018331  0.146648     24.000000
 -0.027497  0.027497  0.155814     24.000000
 -0.036662  0.036662  0.164979     24.000000
 -0.045828  0.045828  0.174145     24.000000
 -0.054993  0.054993  0.183310     24.000000
 -0.064159  0.064159  0.192476     24.000000
 -0.073324  0.073324  0.201641     24.000000
  0.192476 -0.192476 -0.064159     24.000000
  0.183310 -0.183310 -0.054993     24.000000
  0.174145 -0.174145 -0.045828     24.000000
  0.164979 -0.164979 -0.036662     24.000000
  0.155814 -0.155814 -0.027497     24.000000
  0.146648 -0.146648 -0.018331     24.000000
  0.137483 -0.137483 -0.009166     24.000000
  0.128317 -0.128317  0.000000     12.000000
  0.000000  0.000000  0.146648      6.000000
 -0.009166  0.009166  0.155814     24.000000
 -0.018331  0.018331  0.164979     24.000000
 -0.027497  0.027497  0.174145     24.000000
 -0.036662  0.036662  0.183310     24.000000
 -0.045828  0.045828  0.192476     24.000000
 -0.054993  0.054993  0.201641     24.000000
 -0.064159  0.064159  0.210807     24.000000
  0.201641 -0.201641 -0.054993     24.000000
  0.192476 -0.192476 -0.045828     24.000000
  0.183310 -0.183310 -0.036662     24.000000
  0.174145 -0.174145 -0.027497     24.000000
  0.164979 -0.164979 -0.018331     24.000000
  0.155814 -0.155814 -0.009166     24.000000
  0.146648 -0.146648  0.000000     12.000000
  0.000000  0.000000  0.164979      6.000000
 -0.009166  0.009166  0.174145     24.000000
 -0.018331  0.018331  0.183310     24.000000
 -0.027497  0.027497  0.192476     24.000000
 -0.036662  0.036662  0.201641     24.000000
 -0.045828  0.045828  0.210807     24.000000
 -0.054993  0.054993  0.219972     24.000000
  0.210807 -0.210807 -0.045828     24.000000
  0.201641 -0.201641 -0.036662     24.000000
  0.192476 -0.192476 -0.027497     24.000000
  0.183310 -0.183310 -0.018331     24.000000
  0.174145 -0.174145 -0.009166     24.000000
  0.164979 -0.164979  0.000000     12.000000
  0.000000  0.000000  0.183310      6.000000
 -0.009166  0.009166  0.192476     24.000000
 -0.018331  0.018331  0.201641     24.000000
 -0.027497  0.027497  0.210807     24.000000
 -0.036662  0.036662  0.219972     24.000000
 -0.045828  0.045828  0.229138     24.000000
  0.219972 -0.219972 -0.036662     24.000000
  0.210807 -0.210807 -0.027497     24.000000
  0.201641 -0.201641 -0.018331     24.000000
  0.192476 -0.192476 -0.009166     24.000000
  0.183310 -0.183310  0.000000     12.000000
  0.000000  0.000000  0.201641      6.000000
 -0.009166  0.009166  0.210807     24.000000
 -0.018331  0.018331  0.219972     24.000000
 -0.027497  0.027497  0.229138     24.000000
 -0.036662  0.036662  0.238303     24.000000
  0.229138 -0.229138 -0.027497     24.000000
  0.219972 -0.219972 -0.018331     24.000000
  0.210807 -0.210807 -0.009166     24.000000
  0.201641 -0.201641  0.000000     12.000000
  0.000000  0.000000  0.219972      6.000000
 -0.009166  0.009166  0.229138     24.000000
 -0.018331  0.018331  0.238303     24.000000
 -0.027497  0.027497  0.247469     24.000000
  0.238303 -0.238303 -0.018331     24.000000
  0.229138 -0.229138 -0.009166     24.000000
  0.219972 -0.219972  0.000000     12.000000
  0.000000  0.000000  0.238303      6.000000
 -0.009166  0.009166  0.247469     24.000000
 -0.018331  0.018331  0.256634     24.000000
  0.247469 -0.247469 -0.009166     24.000000
  0.238303 -0.238303  0.000000     12.000000
  0.000000  0.000000  0.256634      6.000000
 -0.009166  0.009166  0.265800     24.000000
  0.256634 -0.256634  0.000000     12.000000
  0.000000  0.000000  0.274965      3.000000
  0.000000  0.018331  0.036662     24.000000
 -0.009166  0.027497  0.045828     48.000000
 -0.018331  0.036662  0.054993     48.000000
 -0.027497  0.045828  0.064159     48.000000
 -0.036662  0.054993  0.073324     48.000000
 -0.045828  0.064159  0.082490     48.000000
 -0.054993  0.073324  0.091655     48.000000
 -0.064159  0.082490  0.100821     48.000000
 -0.073324  0.091655  0.109986     48.000000
 -0.082490  0.100821  0.119152     48.000000
 -0.091655  0.109986  0.128317     48.000000
 -0.100821  0.119152  0.137483     48.000000
 -0.109986  0.128317  0.146648     48.000000
  0.155814 -0.137483 -0.119152     24.000000
 -0.000000  0.018331  0.054993     24.000000
 -0.009166  0.027497  0.064159     48.000000
 -0.018331  0.036662  0.073324     48.000000
 -0.027497  0.045828  0.082490     48.000000
 -0.036662  0.054993  0.091655     48.000000
 -0.045828  0.064159  0.100821     48.000000
 -0.054993  0.073324  0.109986     48.000000
 -0.064159  0.082490  0.119152     48.000000
 -0.073324  0.091655  0.128317     48.000000
 -0.082490  0.100821  0.137483     48.000000
 -0.091655  0.109986  0.146648     48.000000
 -0.100821  0.119152  0.155814     48.000000
  0.164979 -0.146648 -0.109986     48.000000
  0.155814 -0.137483 -0.100821     48.000000
  0.146648 -0.128317 -0.091655     48.000000
  0.137483 -0.119152 -0.082490     48.000000
  0.128317 -0.109986 -0.073324     48.000000
  0.119152 -0.100821 -0.064159     48.000000
  0.109986 -0.091655 -0.054993     48.000000
  0.100821 -0.082490 -0.045828     48.000000
  0.091655 -0.073324 -0.036662     48.000000
  0.082490 -0.064159 -0.027497     48.000000
  0.073324 -0.054993 -0.018331     48.000000
  0.064159 -0.045828 -0.009166     48.000000
  0.054993 -0.036662  0.000000     24.000000
  0.000000  0.018331  0.073324     24.000000
 -0.009166  0.027497  0.082490     48.000000
 -0.018331  0.036662  0.091655     48.000000
 -0.027497  0.045828  0.100821     48.000000
 -0.036662  0.054993  0.109986     48.000000
 -0.045828  0.064159  0.119152     48.000000
 -0.054993  0.073324  0.128317     48.000000
 -0.064159  0.082490  0.137483     48.000000
 -0.073324  0.091655  0.146648     48.000000
 -0.082490  0.100821  0.155814     48.000000
 -0.091655  0.109986  0.164979     48.000000
  0.174145 -0.155814 -0.100821     48.000000
  0.164979 -0.146648 -0.091655     48.000000
  0.155814 -0.137483 -0.082490     48.000000
  0.146648 -0.128317 -0.073324     48.000000
  0.137483 -0.119152 -0.064159     48.000000
  0.128317 -0.109986 -0.054993     48.000000
  0.119152 -0.100821 -0.045828     48.000000
  0.109986 -0.091655 -0.036662     48.000000
  0.100821 -0.082490 -0.027497     48.000000
  0.091655 -0.073324 -0.018331     48.000000
  0.082490 -0.064159 -0.009166     48.000000
  0.073324 -0.054993 -0.000000     24.000000
 -0.000000  0.018331  0.091655     24.000000
 -0.009166  0.027497  0.100821     48.000000
 -0.018331  0.036662  0.109986     48.000000
 -0.027497  0.045828  0.119152     48.000000
 -0.036662  0.054993  0.128317     48.000000
 -0.045828  0.064159  0.137483     48.000000
 -0.054993  0.073324  0.146648     48.000000
 -0.064159  0.082490  0.155814     48.000000
 -0.073324  0.091655  0.164979     48.000000
 -0.082490  0.100821  0.174145     48.000000
  0.183310 -0.164979 -0.091655     48.000000
  0.174145 -0.155814 -0.082490     48.000000
  0.164979 -0.146648 -0.073324     48.000000
  0.155814 -0.137483 -0.064159     48.000000
  0.146648 -0.128317 -0.054993     48.000000
  0.137483 -0.119152 -0.045828     48.000000
  0.128317 -0.109986 -0.036662     48.000000
  0.119152 -0.100821 -0.027497     48.000000
  0.109986 -0.091655 -0.018331     48.000000
  0.100821 -0.082490 -0.009166     48.000000
  0.091655 -0.073324  0.000000     24.000000
 -0.000000  0.018331  0.109986     24.000000
 -0.009166  0.027497  0.119152     48.000000
 -0.018331  0.036662  0.128317     48.000000
 -0.027497  0.045828  0.137483     48.000000
 -0.036662  0.054993  0.146648     48.000000
 -0.045828  0.064159  0.155814     48.000000
 -0.054993  0.073324  0.164979     48.000000
 -0.064159  0.082490  0.174145     48.000000
 -0.073324  0.091655  0.183310     48.000000
  0.192476 -0.174145 -0.082490     48.000000
  0.183310 -0.164979 -0.073324     48.000000
  0.174145 -0.155814 -0.064159     48.000000
  0.164979 -0.146648 -0.054993     48.000000
  0.155814 -0.137483 -0.045828     48.000000
  0.146648 -0.128317 -0.036662     48.000000
  0.137483 -0.119152 -0.027497     48.000000
  0.128317 -0.109986 -0.018331     48.000000
  0.119152 -0.100821 -0.009166     48.000000
  0.109986 -0.091655  0.000000     24.000000
  0.000000  0.018331  0.128317     24.000000
 -0.009166  0.027497  0.137483     48.000000
 -0.018331  0.036662  0.146648     48.000000
 -0.027497  0.045828  0.155814     48.000000
 -0.036662  0.054993  0.164979     48.000000
 -0.045828  0.064159  0.174145     48.000000
 -0.054993  0.073324  0.183310     48.000000
 -0.064159  0.082490  0.192476     48.000000
  0.201641 -0.183310 -0.073324     48.000000
  0.192476 -0.174145 -0.064159     48.000000
  0.183310 -0.164979 -0.054993     48.000000
  0.174145 -0.155814 -0.045828     48.000000
  0.164979 -0.146648 -0.036662     48.000000
  0.155814 -0.137483 -0.027497     48.000000
  0.146648 -0.128317 -0.018331     48.000000
  0.137483 -0.119152 -0.009166     48.000000
  0.128317 -0.109986  0.000000     24.000000
 -0.000000  0.018331  0.146648     24.000000
 -0.009166  0.027497  0.155814     48.000000
 -0.018331  0.036662  0.164979     48.000000
 -0.027497  0.045828  0.174145     48.000000
 -0.036662  0.054993  0.183310     48.000000
 -0.045828  0.064159  0.192476     48.000000
 -0.054993  0.073324  0.201641     48.000000
  0.210807 -0.192476 -0.064159     48.000000
  0.201641 -0.183310 -0.054993     48.000000
  0.192476 -0.174145 -0.045828     48.000000
  0.183310 -0.164979 -0.036662     48.000000
  0.174145 -0.155814 -0.027497     48.000000
  0.164979 -0.146648 -0.018331     48.000000
  0.155814 -0.137483 -0.009166     48.000000
  0.146648 -0.128317 -0.000000     24.000000
 -0.000000  0.018331  0.164979     24.000000
 -0.009166  0.027497  0.174145     48.000000
 -0.018331  0.036662  0.183310     48.000000
 -0.027497  0.045828  0.192476     48.000000
 -0.036662  0.054993  0.201641     48.000000
 -0.045828  0.064159  0.210807     48.000000
  0.219972 -0.201641 -0.054993     48.000000
  0.210807 -0.192476 -0.045828     48.000000
  0.201641 -0.183310 -0.036662     48.000000
  0.192476 -0.174145 -0.027497     48.000000
  0.183310 -0.164979 -0.018331     48.000000
  0.174145 -0.155814 -0.009166     48.000000
  0.164979 -0.146648  0.000000     24.000000
 -0.000000  0.018331  0.183310     24.000000
 -0.009166  0.027497  0.192476     48.000000
 -0.018331  0.036662  0.201641     48.000000
 -0.027497  0.045828  0.210807     48.000000
 -0.036662  0.054993  0.219972     48.000000
  0.229138 -0.210807 -0.045828     48.000000
  0.219972 -0.201641 -0.036662     48.000000
  0.210807 -0.192476 -0.027497     48.000000
  0.201641 -0.183310 -0.018331     48.000000
  0.192476 -0.174145 -0.009166     48.000000
  0.183310 -0.164979  0.000000     24.000000
 -0.000000  0.018331  0.201641     24.000000
 -0.009166  0.027497  0.210807     48.000000
 -0.018331  0.036662  0.219972     48.000000
 -0.027497  0.045828  0.229138     48.000000
  0.238303 -0.219972 -0.036662     48.000000
  0.229138 -0.210807 -0.027497     48.000000
  0.219972 -0.201641 -0.018331     48.000000
  0.210807 -0.192476 -0.009166     48.000000
  0.201641 -0.183310  0.000000     24.000000
  0.000000  0.018331  0.219972     24.000000
 -0.009166  0.027497  0.229138     48.000000
 -0.018331  0.036662  0.238303     48.000000
  0.247469 -0.229138 -0.027497     48.000000
  0.238303 -0.219972 -0.018331     48.000000
  0.229138 -0.210807 -0.009166     48.000000
  0.219972 -0.201641  0.000000     24.000000
 -0.000000  0.018331  0.238303     24.000000
 -0.009166  0.027497  0.247469     48.000000
  0.256634 -0.238303 -0.018331     48.000000
  0.247469 -0.229138 -0.009166     48.000000
  0.238303 -0.219972 -0.000000     24.000000
  0.000000  0.018331  0.256634     24.000000
  0.265800 -0.247469 -0.009166     48.000000
  0.256634 -0.238303  0.000000     24.000000
  0.274965 -0.256634 -0.000000     12.000000
 -0.000000  0.036662  0.073324     24.000000
 -0.009166  0.045828  0.082490     48.000000
 -0.018331  0.054993  0.091655     48.000000
 -0.027497  0.064159  0.100821     48.000000
 -0.036662  0.073324  0.109986     48.000000
 -0.045828  0.082490  0.119152     48.000000
 -0.054993  0.091655  0.128317     48.000000
 -0.064159  0.100821  0.137483     48.000000
 -0.073324  0.109986  0.146648     48.000000
 -0.082490  0.119152  0.155814     48.000000
  0.183310 -0.146648 -0.109986     48.000000
  0.174145 -0.137483 -0.100821     24.000000
 -0.000000  0.036662  0.091655     24.000000
 -0.009166  0.045828  0.100821     48.000000
 -0.018331  0.054993  0.109986     48.000000
 -0.027497  0.064159  0.119152     48.000000
 -0.036662  0.073324  0.128317     48.000000
 -0.045828  0.082490  0.137483     48.000000
 -0.054993  0.091655  0.146648     48.000000
 -0.064159  0.100821  0.155814     48.000000
 -0.073324  0.109986  0.164979     48.000000
  0.192476 -0.155814 -0.100821     48.000000
  0.183310 -0.146648 -0.091655     48.000000
  0.174145 -0.137483 -0.082490     48.000000
  0.164979 -0.128317 -0.073324     48.000000
  0.155814 -0.119152 -0.064159     48.000000
  0.146648 -0.109986 -0.054993     48.000000
  0.137483 -0.100821 -0.045828     48.000000
  0.128317 -0.091655 -0.036662     48.000000
  0.119152 -0.082490 -0.027497     48.000000
  0.109986 -0.073324 -0.018331     48.000000
  0.100821 -0.064159 -0.009166     48.000000
  0.091655 -0.054993 -0.000000     24.000000
  0.000000  0.036662  0.109986     24.000000
 -0.009166  0.045828  0.119152     48.000000
 -0.018331  0.054993  0.128317     48.000000
 -0.027497  0.064159  0.137483     48.000000
 -0.036662  0.073324  0.146648     48.000000
 -0.045828  0.082490  0.155814     48.000000
 -0.054993  0.091655  0.164979     48.000000
 -0.064159  0.100821  0.174145     48.000000
  0.201641 -0.164979 -0.091655     48.000000
  0.192476 -0.155814 -0.082490     48.000000
  0.183310 -0.146648 -0.073324     48.000000
  0.174145 -0.137483 -0.064159     48.000000
  0.164979 -0.128317 -0.054993     48.000000
  0.155814 -0.119152 -0.045828     48.000000
  0.146648 -0.109986 -0.036662     48.000000
  0.137483 -0.100821 -0.027497     48.000000
  0.128317 -0.091655 -0.018331     48.000000
  0.119152 -0.082490 -0.009166     48.000000
  0.109986 -0.073324  0.000000     24.000000
  0.000000  0.036662  0.128317     24.000000
 -0.009166  0.045828  0.137483     48.000000
 -0.018331  0.054993  0.146648     48.000000
 -0.027497  0.064159  0.155814     48.000000
 -0.036662  0.073324  0.164979     48.000000
 -0.045828  0.082490  0.174145     48.000000
 -0.054993  0.091655  0.183310     48.000000
  0.210807 -0.174145 -0.082490     48.000000
  0.201641 -0.164979 -0.073324     48.000000
  0.192476 -0.155814 -0.064159     48.000000
  0.183310 -0.146648 -0.054993     48.000000
  0.174145 -0.137483 -0.045828     48.000000
  0.164979 -0.128317 -0.036662     48.000000
  0.155814 -0.119152 -0.027497     48.000000
  0.146648 -0.109986 -0.018331     48.000000
  0.137483 -0.100821 -0.009166     48.000000
  0.128317 -0.091655  0.000000     24.000000
  0.000000  0.036662  0.146648     24.000000
 -0.009166  0.045828  0.155814     48.000000
 -0.018331  0.054993  0.164979     48.000000
 -0.027497  0.064159  0.174145     48.000000
 -0.036662  0.073324  0.183310     48.000000
 -0.045828  0.082490  0.192476     48.000000
  0.219972 -0.183310 -0.073324     48.000000
  0.210807 -0.174145 -0.064159     48.000000
  0.201641 -0.164979 -0.054993     48.000000
  0.192476 -0.155814 -0.045828     48.000000
  0.183310 -0.146648 -0.036662     48.000000
  0.174145 -0.137483 -0.027497     48.000000
  0.164979 -0.128317 -0.018331     48.000000
  0.155814 -0.119152 -0.009166     48.000000
  0.146648 -0.109986 -0.000000     24.000000
  0.000000  0.036662  0.164979     24.000000
 -0.009166  0.045828  0.174145     48.000000
 -0.018331  0.054993  0.183310     48.000000
 -0.027497  0.064159  0.192476     48.000000
 -0.036662  0.073324  0.201641     48.000000
  0.229138 -0.192476 -0.064159     48.000000
  0.219972 -0.183310 -0.054993     48.000000
  0.210807 -0.174145 -0.045828     48.000000
  0.201641 -0.164979 -0.036662     48.000000
  0.192476 -0.155814 -0.027497     48.000000
  0.183310 -0.146648 -0.018331     48.000000
  0.174145 -0.137483 -0.009166     48.000000
  0.164979 -0.128317 -0.000000     24.000000
  0.000000  0.036662  0.183310     24.000000
 -0.009166  0.045828  0.192476     48.000000
 -0.018331  0.054993  0.201641     48.000000
 -0.027497  0.064159  0.210807     48.000000
  0.238303 -0.201641 -0.054993     48.000000
  0.229138 -0.192476 -0.045828     48.000000
  0.219972 -0.183310 -0.036662     48.000000
  0.210807 -0.174145 -0.027497     48.000000
  0.201641 -0.164979 -0.018331     48.000000
  0.192476 -0.155814 -0.009166     48.000000
  0.183310 -0.146648  0.000000     24.000000
  0.000000  0.036662  0.201641     24.000000
 -0.009166  0.045828  0.210807     48.000000
 -0.018331  0.054993  0.219972     48.000000
  0.247469 -0.210807 -0.045828     48.000000
  0.238303 -0.201641 -0.036662     48.000000
  0.229138 -0.192476 -0.027497     48.000000
  0.219972 -0.183310 -0.018331     48.000000
  0.210807 -0.174145 -0.009166     48.000000
  0.201641 -0.164979  0.000000     24.000000
 -0.000000  0.036662  0.219972     24.000000
 -0.009166  0.045828  0.229138     48.000000
  0.256634 -0.219972 -0.036662     48.000000
  0.247469 -0.210807 -0.027497     48.000000
  0.238303 -0.201641 -0.018331     48.000000
  0.229138 -0.192476 -0.009166     48.000000
  0.219972 -0.183310 -0.000000     24.000000
  0.000000  0.036662  0.238303     24.000000
  0.265800 -0.229138 -0.027497     48.000000
  0.256634 -0.219972 -0.018331     48.000000
  0.247469 -0.210807 -0.009166     48.000000
  0.238303 -0.201641 -0.000000     24.000000
  0.274965 -0.238303 -0.018331     24.000000
  0.265800 -0.229138 -0.009166     48.000000
  0.256634 -0.219972  0.000000     24.000000
  0.274965 -0.238303  0.000000     12.000000
  0.000000  0.054993  0.109986     24.000000
 -0.009166  0.064159  0.119152     48.000000
 -0.018331  0.073324  0.128317     48.000000
 -0.027497  0.082490  0.137483     48.000000
 -0.036662  0.091655  0.146648     48.000000
 -0.045828  0.100821  0.155814     48.000000
 -0.054993  0.109986  0.164979     48.000000
  0.210807 -0.155814 -0.100821     48.000000
  0.201641 -0.146648 -0.091655     48.000000
  0.192476 -0.137483 -0.082490     24.000000
  0.000000  0.054993  0.128317     24.000000
 -0.009166  0.064159  0.137483     48.000000
 -0.018331  0.073324  0.146648     48.000000
 -0.027497  0.082490  0.155814     48.000000
 -0.036662  0.091655  0.164979     48.000000
 -0.045828  0.100821  0.174145     48.000000
  0.219972 -0.164979 -0.091655     48.000000
  0.210807 -0.155814 -0.082490     48.000000
  0.201641 -0.146648 -0.073324     48.000000
  0.192476 -0.137483 -0.064159     48.000000
  0.183310 -0.128317 -0.054993     48.000000
  0.174145 -0.119152 -0.045828     48.000000
  0.164979 -0.109986 -0.036662     48.000000
  0.155814 -0.100821 -0.027497     48.000000
  0.146648 -0.091655 -0.018331     48.000000
  0.137483 -0.082490 -0.009166     48.000000
  0.128317 -0.073324  0.000000     24.000000
 -0.000000  0.054993  0.146648     24.000000
 -0.009166  0.064159  0.155814     48.000000
 -0.018331  0.073324  0.164979     48.000000
 -0.027497  0.082490  0.174145     48.000000
 -0.036662  0.091655  0.183310     48.000000
  0.229138 -0.174145 -0.082490     48.000000
  0.219972 -0.164979 -0.073324     48.000000
  0.210807 -0.155814 -0.064159     48.000000
  0.201641 -0.146648 -0.054993     48.000000
  0.192476 -0.137483 -0.045828     48.000000
  0.183310 -0.128317 -0.036662     48.000000
  0.174145 -0.119152 -0.027497     48.000000
  0.164979 -0.109986 -0.018331     48.000000
  0.155814 -0.100821 -0.009166     48.000000
  0.146648 -0.091655 -0.000000     24.000000
 -0.000000  0.054993  0.164979     24.000000
 -0.009166  0.064159  0.174145     48.000000
 -0.018331  0.073324  0.183310     48.000000
 -0.027497  0.082490  0.192476     48.000000
  0.238303 -0.183310 -0.073324     48.000000
  0.229138 -0.174145 -0.064159     48.000000
  0.219972 -0.164979 -0.054993     48.000000
  0.210807 -0.155814 -0.045828     48.000000
  0.201641 -0.146648 -0.036662     48.000000
  0.192476 -0.137483 -0.027497     48.000000
  0.183310 -0.128317 -0.018331     48.000000
  0.174145 -0.119152 -0.009166     48.000000
  0.164979 -0.109986 -0.000000     24.000000
  0.000000  0.054993  0.183310     24.000000
 -0.009166  0.064159  0.192476     48.000000
 -0.018331  0.073324  0.201641     48.000000
  0.247469 -0.192476 -0.064159     48.000000
  0.238303 -0.183310 -0.054993     48.000000
  0.229138 -0.174145 -0.045828     48.000000
  0.219972 -0.164979 -0.036662     48.000000
  0.210807 -0.155814 -0.027497     48.000000
  0.201641 -0.146648 -0.018331     48.000000
  0.192476 -0.137483 -0.009166     48.000000
  0.183310 -0.128317 -0.000000     24.000000
 -0.000000  0.054993  0.201641     24.000000
 -0.009166  0.064159  0.210807     48.000000
  0.256634 -0.201641 -0.054993     48.000000
  0.247469 -0.192476 -0.045828     48.000000
  0.238303 -0.183310 -0.036662     48.000000
  0.229138 -0.174145 -0.027497     48.000000
  0.219972 -0.164979 -0.018331     48.000000
  0.210807 -0.155814 -0.009166     48.000000
  0.201641 -0.146648  0.000000     24.000000
  0.000000  0.054993  0.219972     24.000000
  0.265800 -0.210807 -0.045828     48.000000
  0.256634 -0.201641 -0.036662     48.000000
  0.247469 -0.192476 -0.027497     48.000000
  0.238303 -0.183310 -0.018331     48.000000
  0.229138 -0.174145 -0.009166     48.000000
  0.219972 -0.164979  0.000000     24.000000
  0.274965 -0.219972 -0.036662     24.000000
  0.265800 -0.210807 -0.027497     48.000000
  0.256634 -0.201641 -0.018331     48.000000
  0.247469 -0.192476 -0.009166     48.000000
  0.238303 -0.183310 -0.000000     24.000000
  0.274965 -0.219972 -0.018331     24.000000
  0.265800 -0.210807 -0.009166     48.000000
  0.256634 -0.201641  0.000000     24.000000
  0.274965 -0.219972 -0.000000     12.000000
 -0.000000  0.073324  0.146648     24.000000
 -0.009166  0.082490  0.155814     48.000000
 -0.018331  0.091655  0.164979     48.000000
 -0.027497  0.100821  0.174145     48.000000
  0.238303 -0.164979 -0.091655     48.000000
  0.229138 -0.155814 -0.082490     48.000000
  0.219972 -0.146648 -0.073324     48.000000
  0.210807 -0.137483 -0.064159     24.000000
  0.000000  0.073324  0.164979     24.000000
 -0.009166  0.082490  0.174145     48.000000
 -0.018331  0.091655  0.183310     48.000000
  0.247469 -0.174145 -0.082490     48.000000
  0.238303 -0.164979 -0.073324     48.000000
  0.229138 -0.155814 -0.064159     48.000000
  0.219972 -0.146648 -0.054993     48.000000
  0.210807 -0.137483 -0.045828     48.000000
  0.201641 -0.128317 -0.036662     48.000000
  0.192476 -0.119152 -0.027497     48.000000
  0.183310 -0.109986 -0.018331     48.000000
  0.174145 -0.100821 -0.009166     48.000000
  0.164979 -0.091655  0.000000     24.000000
 -0.000000  0.073324  0.183310     24.000000
 -0.009166  0.082490  0.192476     48.000000
  0.256634 -0.183310 -0.073324     48.000000
  0.247469 -0.174145 -0.064159     48.000000
  0.238303 -0.164979 -0.054993     48.000000
  0.229138 -0.155814 -0.045828     48.000000
  0.219972 -0.146648 -0.036662     48.000000
  0.210807 -0.137483 -0.027497     48.000000
  0.201641 -0.128317 -0.018331     48.000000
  0.192476 -0.119152 -0.009166     48.000000
  0.183310 -0.109986 -0.000000     24.000000
  0.000000  0.073324  0.201641     24.000000
  0.265800 -0.192476 -0.064159     48.000000
  0.256634 -0.183310 -0.054993     48.000000
  0.247469 -0.174145 -0.045828     48.000000
  0.238303 -0.164979 -0.036662     48.000000
  0.229138 -0.155814 -0.027497     48.000000
  0.219972 -0.146648 -0.018331     48.000000
  0.210807 -0.137483 -0.009166     48.000000
  0.201641 -0.128317  0.000000     24.000000
  0.274965 -0.201641 -0.054993     24.000000
  0.265800 -0.192476 -0.045828     48.000000
  0.256634 -0.183310 -0.036662     48.000000
  0.247469 -0.174145 -0.027497     48.000000
  0.238303 -0.164979 -0.018331     48.000000
  0.229138 -0.155814 -0.009166     48.000000
  0.219972 -0.146648  0.000000     24.000000
  0.274965 -0.201641 -0.036662     24.000000
  0.265800 -0.192476 -0.027497     48.000000
  0.256634 -0.183310 -0.018331     48.000000
  0.247469 -0.174145 -0.009166     48.000000
  0.238303 -0.164979  0.000000     24.000000
  0.274965 -0.201641 -0.018331     24.000000
  0.265800 -0.192476 -0.009166     48.000000
  0.256634 -0.183310  0.000000     24.000000
  0.274965 -0.201641 -0.000000     12.000000
  0.000000  0.091655  0.183310     24.000000
  0.265800 -0.174145 -0.082490     48.000000
  0.256634 -0.164979 -0.073324     48.000000
  0.247469 -0.155814 -0.064159     48.000000
  0.238303 -0.146648 -0.054993     48.000000
  0.229138 -0.137483 -0.045828     24.000000
  0.274965 -0.183310 -0.073324     24.000000
  0.265800 -0.174145 -0.064159     48.000000
  0.256634 -0.164979 -0.054993     48.000000
  0.247469 -0.155814 -0.045828     48.000000
  0.238303 -0.146648 -0.036662     48.000000
  0.229138 -0.137483 -0.027497     48.000000
  0.219972 -0.128317 -0.018331     48.000000
  0.210807 -0.119152 -0.009166     48.000000
  0.201641 -0.109986  0.000000     24.000000
  0.274965 -0.183310 -0.054993     24.000000
  0.265800 -0.174145 -0.045828     48.000000
  0.256634 -0.164979 -0.036662     48.000000
  0.247469 -0.155814 -0.027497     48.000000
  0.238303 -0.146648 -0.018331     48.000000
  0.229138 -0.137483 -0.009166     48.000000
  0.219972 -0.128317  0.000000     24.000000
  0.274965 -0.183310 -0.036662     24.000000
  0.265800 -0.174145 -0.027497     48.000000
  0.256634 -0.164979 -0.018331     48.000000
  0.247469 -0.155814 -0.009166     48.000000
  0.238303 -0.146648  0.000000     24.000000
  0.274965 -0.183310 -0.018331     24.000000
  0.265800 -0.174145 -0.009166     48.000000
  0.256634 -0.164979  0.000000     24.000000
  0.274965 -0.183310  0.000000     12.000000
  0.274965 -0.164979 -0.054993     24.000000
  0.265800 -0.155814 -0.045828     48.000000
  0.256634 -0.146648 -0.036662     48.000000
  0.247469 -0.137483 -0.027497     24.000000
  0.274965 -0.164979 -0.036662     24.000000
  0.265800 -0.155814 -0.027497     48.000000
  0.256634 -0.146648 -0.018331     48.000000
  0.247469 -0.137483 -0.009166     48.000000
  0.238303 -0.128317 -0.000000     24.000000
  0.274965 -0.164979 -0.018331     24.000000
  0.265800 -0.155814 -0.009166     48.000000
  0.256634 -0.146648  0.000000     24.000000
  0.274965 -0.164979  0.000000     12.000000
  0.274965 -0.146648 -0.018331     24.000000
  0.265800 -0.137483 -0.009166     24.000000
  0.274965 -0.146648  0.000000     12.000000
 


[...]
      5       5.8354      2.00000
      6      12.4504      0.00000
      7      13.3443      0.00000
      8      16.3190      0.00000
      9      16.9183      0.00000
     10      33.6454      0.00000
     11      35.6749      0.00000
     12      37.6116      0.00000
     13      41.5155      0.00000
     14      51.0817      0.00000
     15      53.2106      0.00000
     16      56.3668      0.00000
     17      57.3502      0.00000
     18      57.8596      0.00000
     19      61.1944      0.00000
     20      61.5912      0.00000
     21      65.0263      0.00000
     22      71.5053      0.00000
     23      73.7834      0.00000
     24      74.9636      0.00000
     25      76.3608      0.00000
     26      77.8654      0.00000
     27      79.1218      0.00000
     28      80.0869      0.00000
     29      81.2672      0.00000
     30      82.4666      0.00000
     31      84.0845      0.00000
     32      84.9431      0.00000

 k-point   744 :      -0.2667    0.4333    0.2000
  band No.  band energies     occupation 
      1       3.3601      2.00000
      2       3.8314      2.00000
      3       3.9189      2.00000
      4       5.1509      2.00000
      5       5.8232      2.00000
      6      12.2652      0.00000
      7      13.4632      0.00000
      8      16.1077      0.00000
      9      17.2655      0.00000
     10      33.9203      0.00000
     11      35.3559      0.00000
     12      37.8939      0.00000
     13      41.3166      0.00000
     14      50.7234      0.00000
     15      53.1450      0.00000
     16      55.8060      0.00000
     17      56.9377      0.00000
     18      58.6183      0.00000
     19      61.0174      0.00000
     20      62.2041      0.00000
     21      65.2707      0.00000
     22      71.3592      0.00000
     23      73.9456      0.00000
     24      75.6044      0.00000
     25      76.9056      0.00000
     26      77.2453      0.00000
     27      78.3105      0.00000
     28      79.5145      0.00000
     29      81.8837      0.00000
     30      82.6632      0.00000
     31      84.1902      0.00000
     32      84.9442      0.00000

 k-point   745 :      -0.2333    0.4333    0.2000
  band No.  band energies     occupation 
      1       3.3684      2.00000
      2       3.7990      2.00000
      3       3.9269      2.00000
      4       5.1646      2.00000
      5       5.7897      2.00000
      6      11.3025      0.00000
      7      14.2452      0.00000
      8      16.1994      0.00000
      9      17.7179      0.00000
     10      34.1600      0.00000
     11      34.5421      0.00000
     12      37.8672      0.00000
     13      42.2067      0.00000
     14      50.0275      0.00000
     15      52.6198      0.00000
     16      55.4284      0.00000
     17      55.6233      0.00000
     18      59.8095      0.00000
     19      61.1600      0.00000
     20      63.2077      0.00000
     21      66.0303      0.00000
     22      70.0971      0.00000
     23      72.6041      0.00000
     24      75.9258      0.00000
     25      76.6922      0.00000
     26      77.7696      0.00000
     27      78.8817      0.00000
     28      79.1846      0.00000
     29      82.8326      0.00000
     30      82.8984      0.00000
     31      85.0130      0.00000
     32      85.2992      0.00000

 k-point   746 :      -0.3333    0.4667    0.2000
  band No.  band energies     occupation 
      1       3.2359      2.00000
      2       3.5876      2.00000
      3       4.2573      2.00000
      4       5.2332      2.00000
      5       5.8563      2.00000
      6      11.6213      0.00000
      7      15.0086      0.00000
      8      15.8219      0.00000
      9      16.6649      0.00000
     10      32.5620      0.00000
     11      34.7905      0.00000
     12      38.1749      0.00000
     13      43.1044      0.00000
     14      52.7526      0.00000
     15      52.8895      0.00000
     16      56.3648      0.00000
     17      57.4192      0.00000
     18      57.9112      0.00000
     19      60.9053      0.00000
     20      61.2443      0.00000
     21      64.4052      0.00000
     22      70.8008      0.00000
     23      71.0024      0.00000
     24      73.6838      0.00000
     25      75.4996      0.00000
     26      78.7858      0.00000
     27      80.1546      0.00000
     28      82.1308      0.00000
     29      82.4024      0.00000
     30      82.7625      0.00000
     31      84.0893      0.00000
     32      85.2248      0.00000

 k-point   747 :      -0.3000    0.4667    0.2000
  band No.  band energies     occupation 
      1       3.2800      2.00000
      2       3.6764      2.00000
      3       4.1430      2.00000
      4       5.1882      2.00000
      5       5.8676      2.00000
      6      12.4438      0.00000
      7      14.2160      0.00000
      8      15.5628      0.00000
      9      16.6023      0.00000
     10      33.2426      0.00000
     11      35.7738      0.00000
     12      37.3664      0.00000
     13      41.9470      0.00000
     14      52.4935      0.00000
     15      54.0247      0.00000
     16      56.1729      0.00000
     17      57.3669      0.00000
     18      58.4746      0.00000
     19      60.2016      0.00000
     20      60.9385      0.00000
     21      63.9190      0.00000
     22      72.1010      0.00000
     23      72.9983      0.00000
     24      74.2787      0.00000
     25      75.3882      0.00000
     26      78.8041      0.00000
     27      80.3371      0.00000
     28      80.5199      0.00000
     29      81.6718      0.00000
     30      82.4408      0.00000
     31      83.1208      0.00000
     32      84.4310      0.00000

 k-point   748 :      -0.2667    0.4667    0.2000
  band No.  band energies     occupation 
      1       3.3221      2.00000
      2       3.7676      2.00000
      3       4.0201      2.00000
      4       5.1603      2.00000
      5       5.8557      2.00000
      6      13.1155      0.00000
      7      13.2406      0.00000
      8      15.6037      0.00000
      9      16.8605      0.00000
     10      33.6759      0.00000
     11      36.3584      0.00000
     12      36.9795      0.00000
     13      41.2676      0.00000
     14      51.8239      0.00000
     15      53.9528      0.00000
     16      56.4492      0.00000
     17      56.7906      0.00000
     18      58.8524      0.00000
     19      59.9551      0.00000
     20      61.4663      0.00000
     21      64.2397      0.00000
     22      72.2895      0.00000
     23      74.4209      0.00000
     24      74.9127      0.00000
     25      76.0180      0.00000
     26      77.8106      0.00000
     27      78.8239      0.00000
     28      80.0443      0.00000
     29      81.9228      0.00000
     30      82.5289      0.00000
     31      82.9508      0.00000
     32      84.3756      0.00000

 k-point   749 :      -0.3000    0.5000    0.2000
  band No.  band energies     occupation 
      1       3.2226      2.00000
      2       3.5807      2.00000
      3       4.2885      2.00000
      4       5.2289      2.00000
      5       5.8792      2.00000
      6      12.1691      0.00000
      7      14.9407      0.00000
      8      15.1775      0.00000
      9      16.6090      0.00000
     10      32.5202      0.00000
     11      34.8782      0.00000
     12      38.3468      0.00000
     13      42.7243      0.00000
     14      52.9311      0.00000
     15      55.0062      0.00000
     16      55.1380      0.00000
     17      58.1530      0.00000
     18      58.2258      0.00000
     19      59.9487      0.00000
     20      60.9630      0.00000
     21      63.4266      0.00000
     22      71.5854      0.00000
     23      72.3049      0.00000
     24      73.1959      0.00000
     25      74.0656      0.00000
     26      79.1778      0.00000
     27      81.1195      0.00000
     28      81.5171      0.00000
     29      82.1689      0.00000
     30      82.5693      0.00000
     31      83.7726      0.00000
     32      84.6971      0.00000

 k-point   750 :      -0.3000    0.4667    0.2333
  band No.  band energies     occupation 
      1       3.3195      2.00000
      2       3.7877      2.00000
      3       3.9955      2.00000
      4       5.1637      2.00000
      5       5.8560      2.00000
      6      12.4101      0.00000
      7      14.0376      0.00000
      8      15.9906      0.00000
      9      16.3879      0.00000
     10      34.4140      0.00000
     11      35.2341      0.00000
     12      37.1763      0.00000
     13      41.4536      0.00000
     14      52.3687      0.00000
     15      53.3409      0.00000
     16      56.3821      0.00000
     17      57.0830      0.00000
     18      58.3799      0.00000
     19      60.3796      0.00000
     20      61.2273      0.00000
     21      64.3429      0.00000
     22      71.8682      0.00000
     23      73.6484      0.00000
     24      75.6803      0.00000
     25      76.3059      0.00000
     26      78.3892      0.00000
     27      78.9990      0.00000
     28      80.0674      0.00000
     29      81.9146      0.00000
     30      81.9512      0.00000
     31      83.5824      0.00000
     32      83.7021      0.00000

 k-point   751 :      -0.2667    0.4667    0.2333
  band No.  band energies     occupation 
      1       3.3224      2.00000
      2       3.8803      2.00000
      3       3.9059      2.00000
      4       5.1528      2.00000
      5       5.8676      2.00000
      6      13.2537      0.00000
      7      13.3649      0.00000
      8      15.8551      0.00000
      9      16.2085      0.00000
     10      34.8906      0.00000
     11      35.3047      0.00000
     12      36.9437      0.00000
     13      41.0120      0.00000
     14      52.7753      0.00000
     15      53.7390      0.00000
     16      56.1386      0.00000
     17      57.4947      0.00000
     18      58.4696      0.00000
     19      60.1885      0.00000
     20      60.6090      0.00000
     21      63.9551      0.00000
     22      72.5452      0.00000
     23      74.7229      0.00000
     24      75.6543      0.00000
     25      76.3350      0.00000
     26      77.8662      0.00000
     27      78.4747      0.00000
     28      80.8708      0.00000
     29      81.3053      0.00000
     30      81.8306      0.00000
     31      83.0711      0.00000
     32      83.2049      0.00000

 k-point   752 :      -0.2667    0.5000    0.2333
  band No.  band energies     occupation 
      1       3.3020      2.00000
      2       3.7838      2.00000
      3       4.0201      2.00000
      4       5.1619      2.00000
      5       5.8792      2.00000
      6      13.0417      0.00000
      7      13.9673      0.00000
      8      15.4917      0.00000
      9      16.1121      0.00000
     10      34.3713      0.00000
     11      36.2287      0.00000
     12      36.3150      0.00000
     13      41.1964      0.00000
     14      53.5699      0.00000
     15      54.2812      0.00000
     16      55.1385      0.00000
     17      58.0892      0.00000
     18      58.9569      0.00000
     19      59.8633      0.00000
     20      59.8908      0.00000
     21      63.5415      0.00000
     22      72.8681      0.00000
     23      74.6850      0.00000
     24      74.7982      0.00000
     25      75.7274      0.00000
     26      78.6781      0.00000
     27      79.1085      0.00000
     28      81.2855      0.00000
     29      81.6951      0.00000
     30      81.7431      0.00000
     31      82.0631      0.00000
     32      83.1136      0.00000


--------------------------------------------------------------------------------------------------------


 soft charge-density along one line, spin component           1
         0         1         2         3         4         5         6         7         8         9
 total charge-density along one line
 
 pseudopotential strength for first ion, spin component:           1
 -3.040  -0.000  -0.000  -0.000  -0.000  -4.613   0.000   0.000
 -0.000  -3.040   0.000  -0.000  -0.000   0.000  -4.613  -0.000
 -0.000   0.000  -3.023   0.000  -0.000   0.000  -0.000  -4.625
 -0.000  -0.000   0.000  -3.040   0.000   0.000   0.000  -0.000
 -0.000  -0.000  -0.000   0.000  -3.023   0.000   0.000   0.000
 -4.613   0.000   0.000   0.000   0.000  10.213   0.000  -0.000
  0.000  -4.613  -0.000   0.000   0.000   0.000  10.213   0.000
  0.000  -0.000  -4.625  -0.000   0.000  -0.000   0.000  10.222
  0.000   0.000  -0.000  -4.613  -0.000   0.000   0.000   0.000
  0.000   0.000   0.000  -0.000  -4.625  -0.000  -0.000  -0.000
 -0.000  -0.000   0.000  -0.000  -0.000  -0.000  -0.000   0.000
 -0.000  -0.000   0.000  -0.000  -0.000  -0.000  -0.000   0.000
  0.000   0.000  -0.000  -0.000  -0.000  -0.000   0.000  -0.000
 -0.000   0.000  -0.000   0.000  -0.000   0.000  -0.000  -0.000
  0.000  -0.000  -0.000  -0.000   0.000  -0.000   0.000   0.000
  0.000  -0.000   0.000   0.000  -0.000   0.000   0.000  -0.000
  0.000   0.000  -0.000   0.000   0.000   0.000  -0.000  -0.000
 -0.000   0.000  -0.000  -0.000   0.000  -0.000   0.000   0.000
 total augmentation occupancy for first ion, spin component:           1
  1.907  -0.000  -0.000   0.000   0.000  -0.016   0.000   0.000  -0.000  -0.000   0.000   0.000   0.000   0.000   0.000   0.000
 -0.000   1.907  -0.000   0.000  -0.000   0.000  -0.016   0.000   0.000  -0.000  -0.000  -0.000   0.000   0.000   0.000   0.000
  0.000   0.000   1.926   0.000   0.000   0.000   0.000  -0.034   0.000   0.000  -0.000   0.000   0.000   0.000   0.000   0.000
  0.000  -0.000   0.000   1.907   0.000   0.000   0.000   0.000  -0.016   0.000   0.000   0.000   0.000   0.000   0.000   0.000
  0.000  -0.000   0.000   0.000   1.926  -0.000   0.000   0.000  -0.000  -0.034   0.000  -0.000   0.000   0.000   0.000   0.000
 -0.016   0.000   0.000  -0.000  -0.000   0.016   0.000   0.000   0.000  -0.000   0.000   0.000   0.000   0.000   0.000   0.000
  0.000  -0.016   0.000  -0.000   0.000   0.000   0.016  -0.000   0.000  -0.000  -0.000  -0.000   0.000   0.000   0.000   0.000
  0.000  -0.000  -0.034   0.000   0.000   0.000  -0.000   0.015  -0.000   0.000  -0.000   0.000   0.000   0.000   0.000   0.000
 -0.000  -0.000   0.000  -0.016  -0.000  -0.000   0.000  -0.000   0.016   0.000  -0.000   0.000   0.000   0.000   0.000   0.000
 -0.000  -0.000   0.000  -0.000  -0.034  -0.000   0.000   0.000   0.000   0.015  -0.000   0.000   0.000   0.000   0.000   0.000
  0.000  -0.000  -0.000   0.000   0.000  -0.000   0.000  -0.000   0.000  -0.000   1.768  -0.169   0.000   0.000   0.000   0.000
  0.000  -0.000   0.000   0.000  -0.000   0.000  -0.000   0.000   0.000   0.000  -0.169   0.022   0.000   0.000   0.000   0.000
  0.000   0.000   0.000   0.000   0.000   0.000   0.000   0.000   0.000   0.000   0.000   0.000   0.231   0.000   0.000  -0.015
  0.000   0.000   0.000   0.000   0.000   0.000   0.000   0.000   0.000   0.000   0.000   0.000   0.000   0.231   0.000   0.000
  0.000   0.000   0.000   0.000   0.000   0.000   0.000   0.000   0.000   0.000   0.000   0.000   0.000   0.000   0.231  -0.000
  0.000   0.000   0.000   0.000   0.000   0.000   0.000   0.000   0.000   0.000   0.000   0.000  -0.015  -0.000   0.000   0.001
  0.000   0.000   0.000   0.000   0.000   0.000   0.000   0.000   0.000   0.000   0.000   0.000   0.000  -0.015   0.000   0.000
  0.000   0.000   0.000   0.000   0.000   0.000   0.000   0.000   0.000   0.000   0.000   0.000   0.000  -0.000  -0.015  -0.000


------------------------ aborting loop because EDIFF is reached ----------------------------------------





 total charge

# of ion       s       p       d       tot
------------------------------------------
    1        0.442   0.370   9.171   9.983
 
    CHARGE:  cpu time      0.0932: real time      0.0936
    FORLOC:  cpu time      0.0001: real time      0.0001
    FORNL :  cpu time      0.0498: real time      0.0501
    FORCOR:  cpu time      0.0057: real time      0.0057
    FORHAR:  cpu time      0.0010: real time      0.0010
    MIXING:  cpu time      0.0004: real time      0.0004
    OFIELD:  cpu time      0.0000: real time      0.0000

 VOLUME and BASIS-vectors are now :
 -----------------------------------------------------------------------------
  energy-cutoff  :      520.00
  volume of cell :       12.03
      direct lattice vectors                 reciprocal lattice vectors
     0.000000000  1.818410337  1.818410337    -0.274965441  0.274965441  0.274965441
     1.818410337  0.000000000  1.818410337     0.274965441 -0.274965441  0.274965441
     1.818410337  1.818410337  0.000000000     0.274965441  0.274965441 -0.274965441

  length of vectors
     2.571620560  2.571620560  2.571620560     0.476254114  0.476254114  0.476254114


 FORCES acting on ions
    electron-ion (+dipol)            ewald-force                    non-local-force                 convergence-correction
 -----------------------------------------------------------------------------------------------
   -.117E-13 -.809E-14 0.117E-14   -.176E-14 0.198E-14 -.327E-14   0.808E-27 0.808E-27 0.000E+00   -.567E-14 -.989E-14 -.888E-15
 -----------------------------------------------------------------------------------------------
   -.117E-13 -.809E-14 0.117E-14   -.176E-14 0.198E-14 -.327E-14   0.808E-27 0.808E-27 0.000E+00   -.567E-14 -.989E-14 -.888E-15
 
 
 POSITION                                       TOTAL-FORCE (eV/Angst)
 -----------------------------------------------------------------------------------
      0.00000      0.00000      0.00000         0.000000      0.000000     -0.000000
 -----------------------------------------------------------------------------------
    total drift:                               -0.000000     -0.000000     -0.000000


--------------------------------------------------------------------------------------------------------



  FREE ENERGIE OF THE ION-ELECTRON SYSTEM (eV)
  ---------------------------------------------------
  free  energy   TOTEN  =        -3.72824298 eV

  energy  without entropy=       -3.72815487  energy(sigma->0) =       -3.72819893
 


--------------------------------------------------------------------------------------------------------


    POTLOK:  cpu time      0.0074: real time      0.0074


--------------------------------------------------------------------------------------------------------


 stress matrix after NEB project (eV)
      0.00000      0.00000      0.00000
      0.00000      0.00000      0.00000
      0.00000      0.00000      0.00000
  FORCES: max atom, RMS     0.000000    0.000000
  FORCE total and by dimension    0.000000    0.000000
  Stress total and by dimension    0.000000    0.000000
     LOOP+:  cpu time    150.1043: real time    151.2699
    4ORBIT:  cpu time      0.0000: real time      0.0000



 total charge

# of ion       s       p       d       tot
------------------------------------------
    1        0.442   0.370   9.171   9.983
 

 total amount of memory used by VASP MPI-rank0    73386. kBytes
=======================================================================

   base      :      30000. kBytes
   nonl-proj :      38123. kBytes
   fftplans  :        143. kBytes
   grid      :        485. kBytes
   one-center:         15. kBytes
   wavefun   :       4620. kBytes
 
  
  
 General timing and accounting informations for this job:
 ========================================================
  
                  Total CPU time used (sec):      154.377
                            User time (sec):      149.830
                          System time (sec):        4.547
                         Elapsed time (sec):      156.231
  
                   Maximum memory used (kb):      237788.
                   Average memory used (kb):          N/A
  
                          Minor page faults:        53314
                          Major page faults:          608
                 Voluntary context switches:         5669
