Si FCC                                  
   1.00000000000000     
     0.000000    2.734292    2.734292
     2.734292    0.000000    2.734292
     2.734292    2.734292    0.000000
  Si/79d9987ad87
               2
Direct
  0.000000  0.000000  0.000000
  0.250000  0.250000  0.250000
 
   60   60   60
 -7.6710     -7.1423     -5.6106     -3.2315     -.23975      3.0836      6.4487      9.5919      12.303      14.440    
  15.935      16.785      17.044      16.807      16.199      15.356      14.407      13.427      12.453      11.520    
  10.651      9.8648      9.1686      8.5642      8.0490      7.6186      7.2688      6.9970      6.8023      6.6851    
  6.6459      6.6851      6.8023      6.9970      7.2688      7.6186      8.0490      8.5642      9.1686      9.8648    
  10.651      11.520      12.453      13.427      14.407      15.356      16.199      16.807      17.044      16.785    
  15.935      14.440      12.303      9.5919      6.4487      3.0836     -.23975     -3.2315     -5.6106     -7.1423    
 -7.1423     -6.0670     -4.0298     -1.2400      2.0276      5.4719      8.8049      11.784      14.234      16.054    
  17.214      17.747      17.733      17.285      16.537      15.624      14.652      13.668      12.707      11.797    
  10.961      10.209      9.5490      8.9787      8.4951      8.0945      7.7740      7.5325      7.3706      7.2892    
  7.2892      7.3706      7.5325      7.7740      8.0945      8.4951      8.9787      9.5490      10.209      10.961    
  11.797      12.707      13.668      14.652      15.624      16.537      17.285      17.733      17.747      17.214    
  16.054      14.234      11.784      8.8049      5.4719      2.0276     -1.2400     -4.0298     -6.0670     -7.1423    
 -5.6106     -4.0298     -1.5842      1.4739      4.8466      8.2328      11.365      14.037      16.116      17.545    
  18.332      18.538      18.265      17.637      16.787      15.841      14.864      13.892      12.957      12.083    
  11.287      10.578      9.9573      9.4234      8.9733      8.6042      8.3152      8.1068      7.9808      7.9385    
  7.9808      8.1068      8.3152      8.6042      8.9733      9.4234      9.9573      10.578      11.287      12.083    
  12.957      13.892      14.864      15.841      16.787      17.637      18.265      18.538      18.332      17.545    
  16.116      14.037      11.365      8.2328      4.8466      1.4739     -1.5842     -4.0298     -5.6106     -6.1573    
 -3.2315     -1.2400      1.4739      4.6315      7.9322      11.094      13.886      16.146      17.788      18.795    
  19.208      19.111      18.618      17.858      16.958      16.007      15.044      14.101      13.206      12.379    
  11.631      10.968      10.389      9.8927      9.4769      9.1408      8.8853      8.7128      8.6257      8.6257    
  8.7128      8.8853      9.1408      9.4769      9.8927      10.389      10.968      11.631      12.379      13.206    
  14.101      15.044      16.007      16.958      17.858      18.618      19.111      19.208      18.795      17.788    
  16.146      13.886      11.094      7.9322      4.6315      1.4739     -1.2400     -3.2315     -4.2858     -4.2858    
 -.23975      2.0276      4.8466      7.9322      11.000      13.804      16.158      17.948      19.131      19.726    
  19.800      19.450      18.798      17.966      17.060      16.126      15.196      14.299      13.457      12.684    
  11.988      11.373      10.836      10.378      9.9964      9.6943      9.4744      9.3405      9.2955      9.3405    
  9.4744      9.6943      9.9964      10.378      10.836      11.373      11.988      12.684      13.457      14.299    
  15.196      16.126      17.060      17.966      18.798      19.450      19.800      19.726      19.131      17.948    
  16.158      13.804      11.000      7.9322      4.8466      2.0276     -.23975     -1.7110     -2.2208     -1.7110    
  3.0836      5.4719      8.2328      11.094      13.804      16.161      18.027      19.336      20.081      20.309    
  20.103      19.571      18.829      17.987      17.102      16.205      15.326      14.488      13.707      12.993    
  12.352      11.784      11.288      10.866      10.519      10.252      10.071      9.9783      9.9783      10.071    
  10.252      10.519      10.866      11.288      11.784      12.352      12.993      13.707      14.488      15.326    
  16.205      17.102      17.987      18.829      19.571      20.103      20.309      20.081      19.336      18.027    
  16.161      13.804      11.094      8.2328      5.4719      3.0836      1.3231     0.38853     0.38853      1.3231    
  6.4487      8.8049      11.365      13.886      16.158      18.027      19.404      20.261      20.622      20.553    
  20.147      19.512      18.753      17.936      17.094      16.253      15.439      14.668      13.953      13.300    
  12.711      12.188      11.731      11.344      11.032      10.802      10.660      10.613      10.660      10.802    
  11.032      11.344      11.731      12.188      12.711      13.300      13.953      14.668      15.439      16.253    
  17.094      17.936      18.753      19.512      20.147      20.553      20.622      20.261      19.404      18.027    
  16.158      13.886      11.365      8.8049      6.4487      4.5438      3.3036      2.8731      3.3036      4.5438    
  9.5919      11.784      14.037      16.146      17.948      19.336      20.261      20.728      20.783      20.503    
  19.984      19.325      18.595      17.826      17.045      16.276      15.535      14.837      14.189      13.593    
  13.053      12.570      12.149      11.795      11.519      11.328      11.231      11.231      11.328      11.519    
  11.795      12.149      12.570      13.053      13.593      14.189      14.837      15.535      16.276      17.045    
  17.826      18.595      19.325      19.984      20.503      20.783      20.728      20.261      19.336      17.948    
  16.146      14.037      11.784      9.5919      7.6844      6.2727      5.5216      5.5216      6.2727      7.6844    
  12.303      14.234      16.116      17.788      19.131      20.081      20.622      20.783      20.624      20.226    
  19.679      19.051      18.374      17.671      16.966      16.276      15.614      14.988      14.402      13.859    
  13.362      12.915      12.527      12.207      11.968      11.819      11.769      11.819      11.968      12.207    
  12.527      12.915      13.362      13.859      14.402      14.988      15.614      16.276      16.966      17.671    
  18.374      19.051      19.679      20.226      20.624      20.783      20.622      20.081      19.131      17.788    
  16.116      14.234      12.303      10.514      9.0605      8.1118      7.7820      8.1118      9.0605      10.514    
  14.440      16.054      17.545      18.795      19.726      20.309      20.553      20.503      20.226      19.799    
  19.285      18.712      18.104      17.481      16.860      16.253      15.669      15.110      14.581      14.083    
  13.622      13.207      12.850      12.566      12.366      12.264      12.264      12.366      12.566      12.850    
  13.207      13.622      14.083      14.581      15.110      15.669      16.253      16.860      17.481      18.104    
  18.712      19.285      19.799      20.226      20.503      20.553      20.309      19.726      18.795      17.545    
  16.054      14.440      12.858      11.473      10.445      9.8973      9.8973      10.445      11.473      12.858    
  15.935      17.214      18.332      19.208      19.800      20.103      20.147      19.984      19.679      19.285    
  18.826      18.325      17.799      17.264      16.731      16.205      15.692      15.193      14.711      14.250    
  13.820      13.435      13.110      12.862      12.707      12.654      12.707      12.862      13.110      13.435    
  13.820      14.250      14.711      15.193      15.692      16.205      16.731      17.264      17.799      18.325    
  18.826      19.285      19.679      19.984      20.147      20.103      19.800      19.208      18.332      17.214    
  15.935      14.610      13.374      12.367      11.708      11.478      11.708      12.367      13.374      14.610    
  16.785      17.747      18.538      19.111      19.450      19.571      19.512      19.325      19.051      18.712    
  18.325      17.907      17.471      17.025      16.576      16.126      15.675      15.225      14.780      14.349    
  13.947      13.589      13.296      13.087      12.978      12.978      13.087      13.296      13.589      13.947    
  14.349      14.780      15.225      15.675      16.126      16.576      17.025      17.471      17.907      18.325    
  18.712      19.051      19.325      19.512      19.571      19.450      19.111      18.538      17.747      16.785    
  15.732      14.692      13.778      13.097      12.734      12.734      13.097      13.778      14.692      15.732    
  17.044      17.733      18.265      18.618      18.798      18.829      18.753      18.595      18.374      18.104    
  17.799      17.471      17.125      16.766      16.393      16.007      15.606      15.194      14.779      14.373    
  13.992      13.658      13.397      13.230      13.172      13.230      13.397      13.658      13.992      14.373    
  14.779      15.194      15.606      16.007      16.393      16.766      17.125      17.471      17.799      18.104    
  18.374      18.595      18.753      18.829      18.798      18.618      18.265      17.733      17.044      16.248    
  15.417      14.638      14.001      13.584      13.439      13.584      14.001      14.638      15.417      16.248    
  16.807      17.285      17.637      17.858      17.966      17.987      17.936      17.826      17.671      17.481    
  17.264      17.025      16.766      16.484      16.176      15.841      15.479      15.096      14.701      14.309    
  13.945      13.636      13.411      13.293      13.293      13.411      13.636      13.945      14.309      14.701    
  15.096      15.479      15.841      16.176      16.484      16.766      17.025      17.264      17.481      17.671    
  17.826      17.936      17.987      17.966      17.858      17.637      17.285      16.807      16.228      15.592    
  14.963      14.409      13.996      13.776      13.776      13.996      14.409      14.963      15.592      16.228    
  16.199      16.537      16.787      16.958      17.060      17.102      17.094      17.045      16.966      16.860    
  16.731      16.576      16.393      16.176      15.920      15.624      15.290      14.924      14.538      14.156    
  13.809      13.531      13.350      13.288      13.350      13.531      13.809      14.156      14.538      14.924    
  15.290      15.624      15.920      16.176      16.393      16.576      16.731      16.860      16.966      17.045    
  17.094      17.102      17.060      16.958      16.787      16.537      16.199      15.781      15.306      14.815    
  14.357      13.984      13.739      13.654      13.739      13.984      14.357      14.815      15.306      15.781    
  15.356      15.624      15.841      16.007      16.126      16.205      16.253      16.276      16.276      16.253    
  16.205      16.126      16.007      15.841      15.624      15.356      15.036      14.675      14.294      13.924    
  13.602      13.364      13.237      13.237      13.364      13.602      13.924      14.294      14.675      15.036    
  15.356      15.624      15.841      16.007      16.126      16.205      16.253      16.276      16.276      16.253    
  16.205      16.126      16.007      15.841      15.624      15.356      15.036      14.675      14.294      13.924    
  13.602      13.364      13.237      13.237      13.364      13.602      13.924      14.294      14.675      15.036    
  14.407      14.652      14.864      15.044      15.196      15.326      15.439      15.535      15.614      15.669    
  15.692      15.675      15.606      15.479      15.290      15.036      14.721      14.362      13.989      13.639    
  13.354      13.167      13.102      13.167      13.354      13.639      13.989      14.362      14.721      15.036    
  15.290      15.479      15.606      15.675      15.692      15.669      15.614      15.535      15.439      15.326    
  15.196      15.044      14.864      14.652      14.407      14.130      13.830      13.518      13.213      12.938    
  12.719      12.577      12.527      12.577      12.719      12.938      13.213      13.518      13.830      14.130    
  13.427      13.668      13.892      14.101      14.299      14.488      14.668      14.837      14.988      15.110    
  15.193      15.225      15.194      15.096      14.924      14.675      14.362      14.010      13.655      13.339    
  13.102      12.976      12.976      13.102      13.339      13.655      14.010      14.362      14.675      14.924    
  15.096      15.194      15.225      15.193      15.110      14.988      14.837      14.668      14.488      14.299    
  14.101      13.892      13.668      13.427      13.167      12.893      12.615      12.344      12.098      11.894    
  11.747      11.670      11.670      11.747      11.894      12.098      12.344      12.615      12.893      13.167    
  12.453      12.707      12.957      13.206      13.457      13.707      13.953      14.189      14.402      14.581    
  14.711      14.780      14.779      14.701      14.538      14.294      13.989      13.655      13.333      13.065    
  12.887      12.825      12.887      13.065      13.333      13.655      13.989      14.294      14.538      14.701    
  14.779      14.780      14.711      14.581      14.402      14.189      13.953      13.707      13.457      13.206    
  12.957      12.707      12.453      12.195      11.932      11.671      11.419      11.187      10.989      10.836    
  10.740      10.707      10.740      10.836      10.989      11.187      11.419      11.671      11.932      12.195    
  11.520      11.797      12.083      12.379      12.684      12.993      13.300      13.593      13.859      14.083    
  14.250      14.349      14.373      14.309      14.156      13.924      13.639      13.339      13.065      12.855    
  12.742      12.742      12.855      13.065      13.339      13.639      13.924      14.156      14.309      14.373    
  14.349      14.250      14.083      13.859      13.593      13.300      12.993      12.684      12.379      12.083    
  11.797      11.520      11.249      10.985      10.728      10.485      10.261      10.066      9.9094      9.7995    
  9.7429      9.7429      9.7995      9.9094      10.066      10.261      10.485      10.728      10.985      11.249    
  10.651      10.961      11.287      11.631      11.988      12.352      12.711      13.053      13.362      13.622    
  13.820      13.947      13.992      13.945      13.809      13.602      13.354      13.102      12.887      12.742    
  12.691      12.742      12.887      13.102      13.354      13.602      13.809      13.945      13.992      13.947    
  13.820      13.622      13.362      13.053      12.711      12.352      11.988      11.631      11.287      10.961    
  10.651      10.358      10.081      9.8196      9.5753      9.3526      9.1573      8.9960      8.8752      8.8004    
  8.7751      8.8004      8.8752      8.9960      9.1573      9.3526      9.5753      9.8196      10.081      10.358    
  9.8648      10.209      10.578      10.968      11.373      11.784      12.188      12.570      12.915      13.207    
  13.435      13.589      13.658      13.636      13.531      13.364      13.167      12.976      12.825      12.742    
  12.742      12.825      12.976      13.167      13.364      13.531      13.636      13.658      13.589      13.435    
  13.207      12.915      12.570      12.188      11.784      11.373      10.968      10.578      10.209      9.8648    
  9.5441      9.2465      8.9712      8.7186      8.4904      8.2901      8.1220      7.9909      7.9009      7.8551    
  7.8551      7.9009      7.9909      8.1220      8.2901      8.4904      8.7186      8.9712      9.2465      9.5441    
  9.1686      9.5490      9.9573      10.389      10.836      11.288      11.731      12.149      12.527      12.850    
  13.110      13.296      13.397      13.411      13.350      13.237      13.102      12.976      12.887      12.855    
  12.887      12.976      13.102      13.237      13.350      13.411      13.397      13.296      13.110      12.850    
  12.527      12.149      11.731      11.288      10.836      10.389      9.9573      9.5490      9.1686      8.8175    
  8.4953      8.2012      7.9346      7.6957      7.4863      7.3090      7.1669      7.0629      6.9995      6.9782    
  6.9995      7.0629      7.1669      7.3090      7.4863      7.6957      7.9346      8.2012      8.4953      8.8175    
  8.5642      8.9787      9.4234      9.8927      10.378      10.866      11.344      11.795      12.207      12.566    
  12.862      13.087      13.230      13.293      13.288      13.237      13.167      13.102      13.065      13.065    
  13.102      13.167      13.237      13.288      13.293      13.230      13.087      12.862      12.566      12.207    
  11.795      11.344      10.866      10.378      9.8927      9.4234      8.9787      8.5642      8.1827      7.8346    
  7.5191      7.2350      6.9820      6.7604      6.5716      6.4174      6.2997      6.2203      6.1803      6.1803    
  6.2203      6.2997      6.4174      6.5716      6.7604      6.9820      7.2350      7.5191      7.8346      8.1827    
  8.0490      8.4951      8.9733      9.4769      9.9964      10.519      11.032      11.519      11.968      12.366    
  12.707      12.978      13.172      13.293      13.350      13.364      13.354      13.339      13.333      13.339    
  13.354      13.364      13.350      13.293      13.172      12.978      12.707      12.366      11.968      11.519    
  11.032      10.519      9.9964      9.4769      8.9733      8.4951      8.0490      7.6385      7.2647      6.9269    
  6.6240      6.3550      6.1194      5.9176      5.7504      5.6190      5.5245      5.4674      5.4484      5.4674    
  5.5245      5.6190      5.7504      5.9176      6.1194      6.3550      6.6240      6.9269      7.2647      7.6385    
  7.6186      8.0945      8.6042      9.1408      9.6943      10.252      10.802      11.328      11.819      12.264    
  12.654      12.978      13.230      13.411      13.531      13.602      13.639      13.655      13.655      13.639    
  13.602      13.531      13.411      13.230      12.978      12.654      12.264      11.819      11.328      10.802    
  10.252      9.6943      9.1408      8.6042      8.0945      7.6186      7.1805      6.7818      6.4220      6.1000    
  5.8143      5.5638      5.3483      5.1678      5.0228      4.9137      4.8408      4.8044      4.8044      4.8408    
  4.9137      5.0228      5.1678      5.3483      5.5638      5.8143      6.1000      6.4220      6.7818      7.1805    
  7.2688      7.7740      8.3152      8.8853      9.4744      10.071      10.660      11.231      11.769      12.264    
  12.707      13.087      13.397      13.636      13.809      13.924      13.989      14.010      13.989      13.924    
  13.809      13.636      13.397      13.087      12.707      12.264      11.769      11.231      10.660      10.071    
  9.4744      8.8853      8.3152      7.7740      7.2688      6.8038      6.3807      5.9994      5.6583      5.3557    
  5.0902      4.8607      4.6668      4.5083      4.3853      4.2976      4.2452      4.2277      4.2452      4.2976    
  4.3853      4.5083      4.6668      4.8607      5.0902      5.3557      5.6583      5.9994      6.3807      6.8038    
  6.9970      7.5325      8.1068      8.7128      9.3405      9.9783      10.613      11.231      11.819      12.366    
  12.862      13.296      13.658      13.945      14.156      14.294      14.362      14.362      14.294      14.156    
  13.945      13.658      13.296      12.862      12.366      11.819      11.231      10.613      9.9783      9.3405    
  8.7128      8.1068      7.5325      6.9970      6.5045      6.0567      5.6535      5.2931      4.9735      4.6927    
  4.4492      4.2420      4.0704      3.9340      3.8323      3.7649      3.7314      3.7314      3.7649      3.8323    
  3.9340      4.0704      4.2420      4.4492      4.6927      4.9735      5.2931      5.6535      6.0567      6.5045    
  6.8023      7.3706      7.9808      8.6257      9.2955      9.9783      10.660      11.328      11.968      12.566    
  13.110      13.589      13.992      14.309      14.538      14.675      14.721      14.675      14.538      14.309    
  13.992      13.589      13.110      12.566      11.968      11.328      10.660      9.9783      9.2955      8.6257    
  7.9808      7.3706      6.8023      6.2803      5.8063      5.3799      4.9992      4.6619      4.3654      4.1076    
  3.8870      3.7024      3.5530      3.4380      3.3567      3.3082      3.2921      3.3082      3.3567      3.4380    
  3.5530      3.7024      3.8870      4.1076      4.3654      4.6619      4.9992      5.3799      5.8063      6.2803    
  6.6851      7.2892      7.9385      8.6257      9.3405      10.071      10.802      11.519      12.207      12.850    
  13.435      13.947      14.373      14.701      14.924      15.036      15.036      14.924      14.701      14.373    
  13.947      13.435      12.850      12.207      11.519      10.802      10.071      9.3405      8.6257      7.9385    
  7.2892      6.6851      6.1307      5.6278      5.1759      4.7730      4.4163      4.1029      3.8300      3.5956    
  3.3980      3.2358      3.1079      3.0132      2.9508      2.9198      2.9198      2.9508      3.0132      3.1079    
  3.2358      3.3980      3.5956      3.8300      4.1029      4.4163      4.7730      5.1759      5.6278      6.1307    
  6.6459      7.2892      7.9808      8.7128      9.4744      10.252      11.032      11.795      12.527      13.207    
  13.820      14.349      14.779      15.096      15.290      15.356      15.290      15.096      14.779      14.349    
  13.820      13.207      12.527      11.795      11.032      10.252      9.4744      8.7128      7.9808      7.2892    
  6.6459      6.0557      5.5205      5.0401      4.6122      4.2338      3.9015      3.6121      3.3628      3.1515    
  2.9763      2.8356      2.7280      2.6524      2.6074      2.5925      2.6074      2.6524      2.7280      2.8356    
  2.9763      3.1515      3.3628      3.6121      3.9015      4.2338      4.6122      5.0401      5.5205      6.0557    
  6.6851      7.3706      8.1068      8.8853      9.6943      10.519      11.344      12.149      12.915      13.622    
  14.250      14.780      15.194      15.479      15.624      15.624      15.479      15.194      14.780      14.250    
  13.622      12.915      12.149      11.344      10.519      9.6943      8.8853      8.1068      7.3706      6.6851    
  6.0557      5.4848      4.9722      4.5159      4.1126      3.7587      3.4505      3.1848      2.9586      2.7696    
  2.6159      2.4955      2.4070      2.3488      2.3200      2.3200      2.3488      2.4070      2.4955      2.6159    
  2.7696      2.9586      3.1848      3.4505      3.7587      4.1126      4.5159      4.9722      5.4848      6.0557    
  6.8023      7.5325      8.3152      9.1408      9.9964      10.866      11.731      12.570      13.362      14.083    
  14.711      15.225      15.606      15.841      15.920      15.841      15.606      15.225      14.711      14.083    
  13.362      12.570      11.731      10.866      9.9964      9.1408      8.3152      7.5325      6.8023      6.1307    
  5.5205      4.9722      4.4838      4.0521      3.6734      3.3436      3.0590      2.8162      2.6123      2.4447    
  2.3112      2.2098      2.1387      2.0967      2.0828      2.0967      2.1387      2.2098      2.3112      2.4447    
  2.6123      2.8162      3.0590      3.3436      3.6734      4.0521      4.4838      4.9722      5.5205      6.1307    
  6.9970      7.7740      8.6042      9.4769      10.378      11.288      12.188      13.053      13.859      14.581    
  15.193      15.675      16.007      16.176      16.176      16.007      15.675      15.193      14.581      13.859    
  13.053      12.188      11.288      10.378      9.4769      8.6042      7.7740      6.9970      6.2803      5.6278    
  5.0401      4.5159      4.0521      3.6450      3.2904      2.9841      2.7223      2.5016      2.3189      2.1715    
  2.0568      1.9729      1.9180      1.8909      1.8909      1.9180      1.9729      2.0568      2.1715      2.3189    
  2.5016      2.7223      2.9841      3.2904      3.6450      4.0521      4.5159      5.0401      5.6278      6.2803    
  7.2688      8.0945      8.9733      9.8927      10.836      11.784      12.711      13.593      14.402      15.110    
  15.692      16.126      16.393      16.484      16.393      16.126      15.692      15.110      14.402      13.593    
  12.711      11.784      10.836      9.8927      8.9733      8.0945      7.2688      6.5045      5.8063      5.1759    
  4.6122      4.1126      3.6734      3.2904      2.9592      2.6756      2.4358      2.2363      2.0736      1.9450    
  1.8478      1.7801      1.7401      1.7268      1.7401      1.7801      1.8478      1.9450      2.0736      2.2363    
  2.4358      2.6756      2.9592      3.2904      3.6734      4.1126      4.6122      5.1759      5.8063      6.5045    
  7.6186      8.4951      9.4234      10.389      11.373      12.352      13.300      14.189      14.988      15.669    
  16.205      16.576      16.766      16.766      16.576      16.205      15.669      14.988      14.189      13.300    
  12.352      11.373      10.389      9.4234      8.4951      7.6186      6.8038      6.0567      5.3799      4.7730    
  4.2338      3.7587      3.3436      2.9841      2.6756      2.4140      2.1953      2.0157      1.8718      1.7606    
  1.6796      1.6268      1.6007      1.6007      1.6268      1.6796      1.7606      1.8718      2.0157      2.1953    
  2.4140      2.6756      2.9841      3.3436      3.7587      4.2338      4.7730      5.3799      6.0567      6.8038    
  8.0490      8.9787      9.9573      10.968      11.988      12.993      13.953      14.837      15.614      16.253    
  16.731      17.025      17.125      17.025      16.731      16.253      15.614      14.837      13.953      12.993    
  11.988      10.968      9.9573      8.9787      8.0490      7.1805      6.3807      5.6535      4.9992      4.4163    
  3.9015      3.4505      3.0590      2.7223      2.4358      2.1953      1.9965      1.8357      1.7092      1.6142    
  1.5482      1.5093      1.4965      1.5093      1.5482      1.6142      1.7092      1.8357      1.9965      2.1953    
  2.4358      2.7223      3.0590      3.4505      3.9015      4.4163      4.9992      5.6535      6.3807      7.1805    
  8.5642      9.5490      10.578      11.631      12.684      13.707      14.668      15.535      16.276      16.860    
  17.264      17.471      17.471      17.264      16.860      16.276      15.535      14.668      13.707      12.684    
  11.631      10.578      9.5490      8.5642      7.6385      6.7818      5.9994      5.2931      4.6619      4.1029    
  3.6121      3.1848      2.8162      2.5016      2.2363      2.0157      1.8357      1.6922      1.5820      1.5020    
  1.4499      1.4243      1.4243      1.4499      1.5020      1.5820      1.6922      1.8357      2.0157      2.2363    
  2.5016      2.8162      3.1848      3.6121      4.1029      4.6619      5.2931      5.9994      6.7818      7.6385    
  9.1686      10.209      11.287      12.379      13.457      14.488      15.439      16.276      16.966      17.481    
  17.799      17.907      17.799      17.481      16.966      16.276      15.439      14.488      13.457      12.379    
  11.287      10.209      9.1686      8.1827      7.2647      6.4220      5.6583      4.9735      4.3654      3.8300    
  3.3628      2.9586      2.6123      2.3189      2.0736      1.8718      1.7092      1.5820      1.4867      1.4207    
  1.3819      1.3691      1.3819      1.4207      1.4867      1.5820      1.7092      1.8718      2.0736      2.3189    
  2.6123      2.9586      3.3628      3.8300      4.3654      4.9735      5.6583      6.4220      7.2647      8.1827    
  9.8648      10.961      12.083      13.206      14.299      15.326      16.253      17.045      17.671      18.104    
  18.325      18.325      18.104      17.671      17.045      16.253      15.326      14.299      13.206      12.083    
  10.961      9.8648      8.8175      7.8346      6.9269      6.1000      5.3557      4.6927      4.1076      3.5956    
  3.1515      2.7696      2.4447      2.1715      1.9450      1.7606      1.6142      1.5020      1.4207      1.3680    
  1.3420      1.3420      1.3680      1.4207      1.5020      1.6142      1.7606      1.9450      2.1715      2.4447    
  2.7696      3.1515      3.5956      4.1076      4.6927      5.3557      6.1000      6.9269      7.8346      8.8175    
  10.651      11.797      12.957      14.101      15.196      16.205      17.094      17.826      18.374      18.712    
  18.826      18.712      18.374      17.826      17.094      16.205      15.196      14.101      12.957      11.797    
  10.651      9.5441      8.4953      7.5191      6.6240      5.8143      5.0902      4.4492      3.8870      3.3980    
  2.9763      2.6159      2.3112      2.0568      1.8478      1.6796      1.5482      1.4499      1.3819      1.3420    
  1.3289      1.3420      1.3819      1.4499      1.5482      1.6796      1.8478      2.0568      2.3112      2.6159    