   2   2   1   0
  0.2044253E+02  0.3866873E-09  0.3866873E-09  0.3866873E-09  0.5000000E-15
  1.000000000000000E-004
  CAR 
 Si FCC                                  
     16.64247941     -7.28585855  301      5.80493635      1.00000000
     -7.286  0.0000E+00  0.0000E+00
     -7.206  0.0000E+00  0.0000E+00
     -7.126  0.0000E+00  0.0000E+00
     -7.047  0.0000E+00  0.0000E+00
     -6.967  0.0000E+00  0.0000E+00
     -6.887  0.0000E+00  0.0000E+00
     -6.807  0.0000E+00  0.0000E+00
     -6.728  0.0000E+00  0.0000E+00
     -6.648  0.0000E+00  0.0000E+00
     -6.568  0.0000E+00  0.0000E+00
     -6.488  0.0000E+00  0.0000E+00
     -6.408  0.0000E+00  0.0000E+00
     -6.329  0.1285E-09  0.1025E-10
     -6.249  0.3523E-02  0.2810E-03
     -6.169  0.7006E+00  0.5616E-01
     -6.089  0.6232E+00  0.1059E+00
     -6.010  0.3757E+00  0.1358E+00
     -5.930  0.3022E+00  0.1599E+00
     -5.850  0.2602E+00  0.1807E+00
     -5.770  0.2438E+00  0.2001E+00
     -5.691  0.2082E+00  0.2167E+00
     -5.611  0.2129E+00  0.2337E+00
     -5.531  0.1831E+00  0.2483E+00
     -5.451  0.1613E+00  0.2612E+00
     -5.372  0.1917E+00  0.2765E+00
     -5.292  0.1485E+00  0.2883E+00
     -5.212  0.1402E+00  0.2995E+00
     -5.132  0.1838E+00  0.3142E+00
     -5.053  0.8596E-01  0.3210E+00
     -4.973  0.1947E+00  0.3366E+00
     -4.893  0.9488E-01  0.3441E+00
     -4.813  0.1789E+00  0.3584E+00
     -4.734  0.1114E+00  0.3673E+00
     -4.654  0.1199E+00  0.3769E+00
     -4.574  0.1069E+00  0.3854E+00
     -4.494  0.1810E+00  0.3998E+00
     -4.414  0.6513E-01  0.4050E+00
     -4.335  0.1751E+00  0.4190E+00
     -4.255  0.9154E-01  0.4263E+00
     -4.175  0.1532E+00  0.4385E+00
     -4.095  0.1478E+00  0.4503E+00
     -4.016  0.1144E+00  0.4594E+00
     -3.936  0.3864E+00  0.4902E+00
     -3.856  0.1499E+01  0.6098E+00
     -3.776  0.7781E+00  0.6718E+00
     -3.697  0.6075E+00  0.7203E+00
     -3.617  0.4467E+00  0.7559E+00
     -3.537  0.4716E+00  0.7935E+00
     -3.457  0.4400E+00  0.8286E+00
     -3.378  0.3230E+00  0.8544E+00
     -3.298  0.3977E+00  0.8861E+00
     -3.218  0.3580E+00  0.9147E+00
     -3.138  0.2581E+00  0.9353E+00
     -3.059  0.3462E+00  0.9629E+00
     -2.979  0.3625E+00  0.9918E+00
     -2.899  0.2359E+00  0.1011E+01
     -2.819  0.3648E+00  0.1040E+01
     -2.739  0.3312E+00  0.1066E+01
     -2.660  0.3524E+00  0.1094E+01
     -2.580  0.3438E+00  0.1122E+01
     -2.500  0.1874E+01  0.1271E+01
     -2.420  0.1278E+01  0.1373E+01
     -2.341  0.9913E+00  0.1452E+01
     -2.261  0.8642E+00  0.1521E+01
     -2.181  0.1066E+01  0.1606E+01
     -2.101  0.3590E+01  0.1892E+01
     -2.022  0.2854E+01  0.2120E+01
     -1.942  0.2791E+01  0.2343E+01
     -1.862  0.7364E+00  0.2401E+01
     -1.782  0.8515E+00  0.2469E+01
     -1.703  0.8606E+00  0.2538E+01
     -1.623  0.1077E+01  0.2624E+01
     -1.543  0.2437E+01  0.2818E+01
     -1.463  0.1007E+01  0.2899E+01
     -1.384  0.3658E+00  0.2928E+01
     -1.304  0.3407E+00  0.2955E+01
     -1.224  0.1875E+01  0.3104E+01
     -1.144  0.2309E+01  0.3289E+01
     -1.064  0.2322E+01  0.3474E+01
     -0.985  0.1892E+00  0.3489E+01
     -0.905  0.8749E-01  0.3496E+01
     -0.825  0.5981E-01  0.3501E+01
     -0.745  0.2156E+00  0.3518E+01
     -0.666  0.2593E-01  0.3520E+01
     -0.586  0.7402E-01  0.3526E+01
     -0.506  0.1029E+00  0.3534E+01
     -0.426  0.1105E+00  0.3543E+01
     -0.347  0.8305E-01  0.3550E+01
     -0.267  0.5759E-01  0.3554E+01
     -0.187  0.7326E-01  0.3560E+01
     -0.107  0.6215E-01  0.3565E+01
     -0.028  0.1385E+00  0.3576E+01
      0.052  0.7638E-01  0.3582E+01
      0.132  0.2550E-01  0.3584E+01
      0.212  0.9400E-01  0.3592E+01
      0.291  0.9566E-01  0.3599E+01
      0.371  0.9657E-01  0.3607E+01
      0.451  0.3151E-01  0.3609E+01
      0.531  0.8167E-01  0.3616E+01
      0.610  0.2255E-01  0.3618E+01
      0.690  0.1558E+00  0.3630E+01
      0.770  0.5630E-01  0.3635E+01
      0.850  0.6639E-01  0.3640E+01
      0.930  0.1962E-03  0.3640E+01
      1.009  0.1188E+00  0.3649E+01
      1.089  0.1064E+00  0.3658E+01
      1.169  0.7547E-01  0.3664E+01
      1.249  0.8110E-03  0.3664E+01
      1.328  0.2141E+00  0.3681E+01
      1.408  0.1365E+01  0.3790E+01
      1.488  0.2628E+01  0.4000E+01
      1.568  0.1356E+01  0.4108E+01
      1.647  0.1428E+01  0.4222E+01
      1.727  0.1196E+01  0.4317E+01
      1.807  0.1214E+01  0.4414E+01
      1.887  0.1733E+01  0.4552E+01
      1.966  0.1499E+01  0.4672E+01
      2.046  0.9210E+00  0.4745E+01
      2.126  0.1210E+01  0.4842E+01
      2.206  0.9307E+00  0.4916E+01
      2.285  0.8666E+00  0.4985E+01
      2.365  0.7750E+00  0.5047E+01
      2.445  0.8012E+00  0.5111E+01
      2.525  0.1048E+01  0.5194E+01
      2.605  0.7477E+00  0.5254E+01
      2.684  0.1058E+01  0.5338E+01
      2.764  0.8518E+00  0.5406E+01
      2.844  0.2389E+01  0.5597E+01
      2.924  0.1955E+01  0.5753E+01
      3.003  0.1043E+01  0.5836E+01
      3.083  0.1096E+01  0.5923E+01
      3.163  0.9415E+00  0.5998E+01
      3.243  0.1446E+01  0.6114E+01
      3.322  0.1228E+01  0.6212E+01
      3.402  0.8171E+00  0.6277E+01
      3.482  0.6786E+00  0.6331E+01
      3.562  0.7761E+00  0.6393E+01
      3.641  0.6863E+00  0.6448E+01
      3.721  0.6673E+00  0.6501E+01
      3.801  0.8358E+00  0.6568E+01
      3.881  0.4720E+00  0.6605E+01
      3.960  0.7889E+00  0.6668E+01
      4.040  0.6750E+00  0.6722E+01
      4.120  0.7438E+00  0.6781E+01
      4.200  0.7009E+00  0.6837E+01
      4.280  0.8019E+00  0.6901E+01
      4.359  0.1044E+01  0.6984E+01
      4.439  0.1856E+01  0.7132E+01
      4.519  0.1561E+01  0.7257E+01
      4.599  0.6581E+00  0.7309E+01
      4.678  0.6951E+00  0.7365E+01
      4.758  0.3933E+00  0.7396E+01
      4.838  0.4868E+00  0.7435E+01
      4.918  0.5426E+00  0.7478E+01
      4.997  0.3965E+00  0.7510E+01
      5.077  0.5047E+00  0.7550E+01
      5.157  0.4562E+00  0.7587E+01
      5.237  0.5442E+00  0.7630E+01
      5.316  0.4492E+00  0.7666E+01
      5.396  0.6798E+00  0.7720E+01
      5.476  0.5563E+00  0.7764E+01
      5.556  0.9285E+00  0.7839E+01
      5.635  0.1808E+01  0.7983E+01
      5.715  0.2160E+00  0.8000E+01
      5.795  0.1763E-05  0.8000E+01
      5.875  0.0000E+00  0.8000E+01
      5.954  0.0000E+00  0.8000E+01
      6.034  0.0000E+00  0.8000E+01
      6.114  0.5956E-08  0.8000E+01
      6.194  0.1068E-01  0.8001E+01
      6.274  0.4280E+00  0.8035E+01
      6.353  0.5234E+00  0.8077E+01
      6.433  0.1883E+01  0.8227E+01
      6.513  0.1005E+01  0.8307E+01
      6.593  0.7986E+00  0.8371E+01
      6.672  0.6452E+00  0.8422E+01
      6.752  0.6168E+00  0.8471E+01
      6.832  0.6401E+00  0.8522E+01
      6.912  0.1371E+01  0.8632E+01
      6.991  0.9606E+00  0.8708E+01
      7.071  0.9484E+00  0.8784E+01
      7.151  0.1640E+01  0.8915E+01
      7.231  0.1176E+01  0.9009E+01
      7.310  0.1061E+01  0.9093E+01
      7.390  0.8255E+00  0.9159E+01
      7.470  0.9944E+00  0.9239E+01
      7.550  0.8459E+00  0.9306E+01
      7.629  0.8465E+00  0.9374E+01
      7.709  0.1020E+01  0.9455E+01
      7.789  0.1052E+01  0.9539E+01
      7.869  0.8801E+00  0.9609E+01
      7.949  0.5237E+00  0.9651E+01
      8.028  0.6380E+00  0.9702E+01
      8.108  0.4246E+00  0.9735E+01
      8.188  0.1813E+01  0.9880E+01
      8.268  0.1715E+01  0.1002E+02
      8.347  0.1012E+01  0.1010E+02
      8.427  0.9937E+00  0.1018E+02
      8.507  0.9391E+00  0.1025E+02
      8.587  0.1069E+01  0.1034E+02
      8.666  0.8625E+00  0.1041E+02
      8.746  0.9949E+00  0.1049E+02
      8.826  0.1841E+01  0.1063E+02
      8.906  0.9934E+00  0.1071E+02
      8.985  0.3429E+01  0.1098E+02
      9.065  0.2593E+01  0.1119E+02
      9.145  0.2147E+01  0.1136E+02
      9.225  0.1117E+01  0.1145E+02
      9.304  0.8858E+00  0.1152E+02
      9.384  0.9139E+00  0.1160E+02
      9.464  0.7323E+00  0.1165E+02
      9.544  0.8625E+00  0.1172E+02
      9.624  0.6644E+00  0.1178E+02
      9.703  0.1005E+01  0.1186E+02
      9.783  0.2786E+01  0.1208E+02
      9.863  0.2221E+01  0.1226E+02
      9.943  0.2933E+01  0.1249E+02
     10.022  0.7873E+00  0.1255E+02
     10.102  0.1576E+00  0.1256E+02
     10.182  0.6789E+00  0.1262E+02
     10.262  0.3811E+00  0.1265E+02
     10.341  0.2915E+00  0.1267E+02
     10.421  0.5192E+00  0.1271E+02
     10.501  0.3179E+00  0.1274E+02
     10.581  0.1622E+01  0.1287E+02
     10.660  0.1171E+01  0.1296E+02
     10.740  0.7942E+00  0.1303E+02
     10.820  0.8470E+00  0.1309E+02
     10.900  0.8289E+00  0.1316E+02
     10.979  0.8502E+00  0.1323E+02
     11.059  0.1262E+01  0.1333E+02
     11.139  0.6122E+00  0.1338E+02
     11.219  0.7782E+00  0.1344E+02
     11.298  0.1198E+01  0.1353E+02
     11.378  0.5310E+00  0.1358E+02
     11.458  0.6116E+00  0.1362E+02
     11.538  0.6722E+00  0.1368E+02
     11.618  0.7195E+00  0.1374E+02
     11.697  0.1118E+01  0.1382E+02
     11.777  0.5319E+00  0.1387E+02
     11.857  0.9263E+00  0.1394E+02
     11.937  0.6582E+00  0.1399E+02
     12.016  0.5871E+00  0.1404E+02
     12.096  0.9475E+00  0.1412E+02
     12.176  0.6330E+00  0.1417E+02
     12.256  0.4239E+00  0.1420E+02
     12.335  0.8463E+00  0.1427E+02
     12.415  0.7717E+00  0.1433E+02
     12.495  0.7000E+00  0.1439E+02
     12.575  0.4762E+00  0.1442E+02
     12.654  0.6893E+00  0.1448E+02
     12.734  0.7681E+00  0.1454E+02
     12.814  0.6300E+00  0.1459E+02
     12.894  0.6263E+00  0.1464E+02
     12.973  0.7755E+00  0.1470E+02
     13.053  0.9026E+00  0.1477E+02
     13.133  0.4346E+00  0.1481E+02
     13.213  0.5935E+00  0.1486E+02
     13.293  0.5910E+00  0.1490E+02
     13.372  0.1463E+01  0.1502E+02
     13.452  0.1160E+01  0.1511E+02
     13.532  0.1080E+01  0.1520E+02
     13.612  0.1455E+01  0.1531E+02
     13.691  0.9188E+00  0.1539E+02
     13.771  0.1127E+00  0.1540E+02
     13.851  0.1458E+00  0.1541E+02
     13.931  0.3754E+00  0.1544E+02
     14.010  0.2417E+00  0.1546E+02
     14.090  0.1416E+00  0.1547E+02
     14.170  0.2498E+00  0.1549E+02
     14.250  0.1932E+00  0.1550E+02
     14.329  0.2829E+00  0.1553E+02
     14.409  0.2595E+00  0.1555E+02
     14.489  0.2730E+00  0.1557E+02
     14.569  0.1757E+00  0.1558E+02
     14.648  0.1910E+00  0.1560E+02
     14.728  0.4674E+00  0.1564E+02
     14.808  0.1931E+00  0.1565E+02
     14.888  0.2278E+00  0.1567E+02
     14.967  0.2573E+00  0.1569E+02
     15.047  0.1962E+00  0.1571E+02
     15.127  0.5309E+00  0.1575E+02
     15.207  0.1734E+00  0.1576E+02
     15.287  0.3884E+00  0.1579E+02
     15.366  0.2846E+00  0.1582E+02
     15.446  0.6345E+00  0.1587E+02
     15.526  0.7042E+00  0.1592E+02
     15.606  0.9739E+00  0.1600E+02
     15.685  0.5562E-02  0.1600E+02
     15.765  0.2126E-09  0.1600E+02
     15.845  0.0000E+00  0.1600E+02
     15.925  0.0000E+00  0.1600E+02
     16.004  0.0000E+00  0.1600E+02
     16.084  0.0000E+00  0.1600E+02
     16.164  0.0000E+00  0.1600E+02
     16.244  0.0000E+00  0.1600E+02
     16.323  0.0000E+00  0.1600E+02
     16.403  0.0000E+00  0.1600E+02
     16.483  0.0000E+00  0.1600E+02
     16.563  0.0000E+00  0.1600E+02
     16.642  0.0000E+00  0.1600E+02
     16.64247941     -7.28585855  301      5.80493635      1.00000000
     -7.286  0.0000E+00  0.0000E+00  0.0000E+00  0.0000E+00  0.0000E+00  0.0000E+00  0.0000E+00  0.0000E+00  0.0000E+00
     -7.206  0.0000E+00  0.0000E+00  0.0000E+00  0.0000E+00  0.0000E+00  0.0000E+00  0.0000E+00  0.0000E+00  0.0000E+00
     -7.126  0.0000E+00  0.0000E+00  0.0000E+00  0.0000E+00  0.0000E+00  0.0000E+00  0.0000E+00  0.0000E+00  0.0000E+00
     -7.047  0.0000E+00  0.0000E+00  0.0000E+00  0.0000E+00  0.0000E+00  0.0000E+00  0.0000E+00  0.0000E+00  0.0000E+00
     -6.967  0.0000E+00  0.0000E+00  0.0000E+00  0.0000E+00  0.0000E+00  0.0000E+00  0.0000E+00  0.0000E+00  0.0000E+00
     -6.887  0.0000E+00  0.0000E+00  0.0000E+00  0.0000E+00  0.0000E+00  0.0000E+00  0.0000E+00  0.0000E+00  0.0000E+00
     -6.807  0.0000E+00  0.0000E+00  0.0000E+00  0.0000E+00  0.0000E+00  0.0000E+00  0.0000E+00  0.0000E+00  0.0000E+00
     -6.728  0.0000E+00  0.0000E+00  0.0000E+00  0.0000E+00  0.0000E+00  0.0000E+00  0.0000E+00  0.0000E+00  0.0000E+00
     -6.648  0.0000E+00  0.0000E+00  0.0000E+00  0.0000E+00  0.0000E+00  0.0000E+00  0.0000E+00  0.0000E+00  0.0000E+00
     -6.568  0.0000E+00  0.0000E+00  0.0000E+00  0.0000E+00  0.0000E+00  0.0000E+00  0.0000E+00  0.0000E+00  0.0000E+00
     -6.488  0.0000E+00  0.0000E+00  0.0000E+00  0.0000E+00  0.0000E+00  0.0000E+00  0.0000E+00  0.0000E+00  0.0000E+00
     -6.408  0.0000E+00  0.0000E+00  0.0000E+00  0.0000E+00  0.0000E+00  0.0000E+00  0.0000E+00  0.0000E+00  0.0000E+00
     -6.329  0.2724E-10  0.3392E-15  0.3392E-15  0.3392E-15  0.0000E+00  0.0000E+00  0.0000E+00  0.0000E+00  0.0000E+00
     -6.249  0.7466E-03  0.2783E-07  0.2783E-07  0.2783E-07  0.0000E+00  0.0000E+00  0.0000E+00  0.0000E+00  0.0000E+00
     -6.169  0.1485E+00  0.2607E-04  0.2607E-04  0.2607E-04  0.0000E+00  0.0000E+00  0.0000E+00  0.0000E+00  0.0000E+00
     -6.089  0.1319E+00  0.1292E-03  0.1292E-03  0.1292E-03  0.0000E+00  0.0000E+00  0.0000E+00  0.0000E+00  0.0000E+00
     -6.010  0.7937E-01  0.1953E-03  0.1953E-03  0.1953E-03  0.0000E+00  0.0000E+00  0.0000E+00  0.0000E+00  0.0000E+00
     -5.930  0.6372E-01  0.2415E-03  0.2415E-03  0.2415E-03  0.0000E+00  0.0000E+00  0.0000E+00  0.0000E+00  0.0000E+00
     -5.850  0.5478E-01  0.2781E-03  0.2781E-03  0.2781E-03  0.0000E+00  0.0000E+00  0.0000E+00  0.0000E+00  0.0000E+00
     -5.770  0.5125E-01  0.3300E-03  0.3300E-03  0.3300E-03  0.0000E+00  0.0000E+00  0.0000E+00  0.0000E+00  0.0000E+00
     -5.691  0.4368E-01  0.3406E-03  0.3406E-03  0.3406E-03  0.0000E+00  0.0000E+00  0.0000E+00  0.0000E+00  0.0000E+00
     -5.611  0.4464E-01  0.4044E-03  0.4044E-03  0.4044E-03  0.0000E+00  0.0000E+00  0.0000E+00  0.0000E+00  0.0000E+00
     -5.531  0.3832E-01  0.4062E-03  0.4062E-03  0.4062E-03  0.0000E+00  0.0000E+00  0.0000E+00  0.0000E+00  0.0000E+00
     -5.451  0.3370E-01  0.3925E-03  0.3925E-03  0.3925E-03  0.0000E+00  0.0000E+00  0.0000E+00  0.0000E+00  0.0000E+00
     -5.372  0.4006E-01  0.5142E-03  0.5142E-03  0.5142E-03  0.0000E+00  0.0000E+00  0.0000E+00  0.0000E+00  0.0000E+00
     -5.292  0.3094E-01  0.4516E-03  0.4516E-03  0.4516E-03  0.0000E+00  0.0000E+00  0.0000E+00  0.0000E+00  0.0000E+00
     -5.212  0.2925E-01  0.4411E-03  0.4411E-03  0.4411E-03  0.0000E+00  0.0000E+00  0.0000E+00  0.0000E+00  0.0000E+00
     -5.132  0.3827E-01  0.6424E-03  0.6424E-03  0.6424E-03  0.0000E+00  0.0000E+00  0.0000E+00  0.0000E+00  0.0000E+00
     -5.053  0.1786E-01  0.3160E-03  0.3160E-03  0.3160E-03  0.0000E+00  0.0000E+00  0.0000E+00  0.0000E+00  0.0000E+00
     -4.973  0.4059E-01  0.7540E-03  0.7540E-03  0.7540E-03  0.0000E+00  0.0000E+00  0.0000E+00  0.0000E+00  0.0000E+00
     -4.893  0.1959E-01  0.4149E-03  0.4149E-03  0.4149E-03  0.0000E+00  0.0000E+00  0.0000E+00  0.0000E+00  0.0000E+00
     -4.813  0.3737E-01  0.7617E-03  0.7617E-03  0.7617E-03  0.0000E+00  0.0000E+00  0.0000E+00  0.0000E+00  0.0000E+00
     -4.734  0.2293E-01  0.5566E-03  0.5566E-03  0.5566E-03  0.0000E+00  0.0000E+00  0.0000E+00  0.0000E+00  0.0000E+00
     -4.654  0.2514E-01  0.5420E-03  0.5420E-03  0.5420E-03  0.0000E+00  0.0000E+00  0.0000E+00  0.0000E+00  0.0000E+00
     -4.574  0.2220E-01  0.5462E-03  0.5462E-03  0.5462E-03  0.0000E+00  0.0000E+00  0.0000E+00  0.0000E+00  0.0000E+00
     -4.494  0.3768E-01  0.9469E-03  0.9469E-03  0.9469E-03  0.0000E+00  0.0000E+00  0.0000E+00  0.0000E+00  0.0000E+00
     -4.414  0.1361E-01  0.3564E-03  0.3564E-03  0.3564E-03  0.0000E+00  0.0000E+00  0.0000E+00  0.0000E+00  0.0000E+00
     -4.335  0.3674E-01  0.9474E-03  0.9474E-03  0.9474E-03  0.0000E+00  0.0000E+00  0.0000E+00  0.0000E+00  0.0000E+00
     -4.255  0.1896E-01  0.5579E-03  0.5579E-03  0.5579E-03  0.0000E+00  0.0000E+00  0.0000E+00  0.0000E+00  0.0000E+00
     -4.175  0.3246E-01  0.8495E-03  0.8495E-03  0.8495E-03  0.0000E+00  0.0000E+00  0.0000E+00  0.0000E+00  0.0000E+00
     -4.095  0.3130E-01  0.8606E-03  0.8606E-03  0.8606E-03  0.0000E+00  0.0000E+00  0.0000E+00  0.0000E+00  0.0000E+00
     -4.016  0.2421E-01  0.6882E-03  0.6882E-03  0.6882E-03  0.0000E+00  0.0000E+00  0.0000E+00  0.0000E+00  0.0000E+00
     -3.936  0.8485E-01  0.1941E-02  0.1941E-02  0.1941E-02  0.0000E+00  0.0000E+00  0.0000E+00  0.0000E+00  0.0000E+00
     -3.856  0.3339E+00  0.6923E-02  0.6923E-02  0.6923E-02  0.0000E+00  0.0000E+00  0.0000E+00  0.0000E+00  0.0000E+00
     -3.776  0.1717E+00  0.4053E-02  0.4053E-02  0.4053E-02  0.0000E+00  0.0000E+00  0.0000E+00  0.0000E+00  0.0000E+00
     -3.697  0.1336E+00  0.3408E-02  0.3408E-02  0.3408E-02  0.0000E+00  0.0000E+00  0.0000E+00  0.0000E+00  0.0000E+00
     -3.617  0.9848E-01  0.2578E-02  0.2578E-02  0.2578E-02  0.0000E+00  0.0000E+00  0.0000E+00  0.0000E+00  0.0000E+00
     -3.537  0.1019E+00  0.3175E-02  0.3175E-02  0.3175E-02  0.0000E+00  0.0000E+00  0.0000E+00  0.0000E+00  0.0000E+00
     -3.457  0.9572E-01  0.2969E-02  0.2969E-02  0.2969E-02  0.0000E+00  0.0000E+00  0.0000E+00  0.0000E+00  0.0000E+00
     -3.378  0.7059E-01  0.2212E-02  0.2212E-02  0.2212E-02  0.0000E+00  0.0000E+00  0.0000E+00  0.0000E+00  0.0000E+00
     -3.298  0.8492E-01  0.3154E-02  0.3154E-02  0.3154E-02  0.0000E+00  0.0000E+00  0.0000E+00  0.0000E+00  0.0000E+00
     -3.218  0.7703E-01  0.2816E-02  0.2816E-02  0.2816E-02  0.0000E+00  0.0000E+00  0.0000E+00  0.0000E+00  0.0000E+00
     -3.138  0.5587E-01  0.2042E-02  0.2042E-02  0.2042E-02  0.0000E+00  0.0000E+00  0.0000E+00  0.0000E+00  0.0000E+00
     -3.059  0.7426E-01  0.2949E-02  0.2949E-02  0.2949E-02  0.0000E+00  0.0000E+00  0.0000E+00  0.0000E+00  0.0000E+00
     -2.979  0.7641E-01  0.3371E-02  0.3371E-02  0.3371E-02  0.0000E+00  0.0000E+00  0.0000E+00  0.0000E+00  0.0000E+00
     -2.899  0.5062E-01  0.2116E-02  0.2116E-02  0.2116E-02  0.0000E+00  0.0000E+00  0.0000E+00  0.0000E+00  0.0000E+00
     -2.819  0.7802E-01  0.3404E-02  0.3404E-02  0.3404E-02  0.0000E+00  0.0000E+00  0.0000E+00  0.0000E+00  0.0000E+00
     -2.739  0.6964E-01  0.3382E-02  0.3382E-02  0.3382E-02  0.0000E+00  0.0000E+00  0.0000E+00  0.0000E+00  0.0000E+00
     -2.660  0.7441E-01  0.3623E-02  0.3623E-02  0.3623E-02  0.0000E+00  0.0000E+00  0.0000E+00  0.0000E+00  0.0000E+00
     -2.580  0.7305E-01  0.3565E-02  0.3565E-02  0.3565E-02  0.0000E+00  0.0000E+00  0.0000E+00  0.0000E+00  0.0000E+00
     -2.500  0.3976E+00  0.1998E-01  0.1998E-01  0.1998E-01  0.0000E+00  0.0000E+00  0.0000E+00  0.0000E+00  0.0000E+00
     -2.420  0.2686E+00  0.1427E-01  0.1427E-01  0.1427E-01  0.0000E+00  0.0000E+00  0.0000E+00  0.0000E+00  0.0000E+00
     -2.341  0.2077E+00  0.1144E-01  0.1144E-01  0.1144E-01  0.0000E+00  0.0000E+00  0.0000E+00  0.0000E+00  0.0000E+00
     -2.261  0.1796E+00  0.1041E-01  0.1041E-01  0.1041E-01  0.0000E+00  0.0000E+00  0.0000E+00  0.0000E+00  0.0000E+00
     -2.181  0.2178E+00  0.1366E-01  0.1366E-01  0.1366E-01  0.0000E+00  0.0000E+00  0.0000E+00  0.0000E+00  0.0000E+00
     -2.101  0.7029E+00  0.5129E-01  0.5129E-01  0.5129E-01  0.0000E+00  0.0000E+00  0.0000E+00  0.0000E+00  0.0000E+00
     -2.022  0.5640E+00  0.4064E-01  0.4064E-01  0.4064E-01  0.0000E+00  0.0000E+00  0.0000E+00  0.0000E+00  0.0000E+00
     -1.942  0.5631E+00  0.3886E-01  0.3886E-01  0.3886E-01  0.0000E+00  0.0000E+00  0.0000E+00  0.0000E+00  0.0000E+00
     -1.862  0.1459E+00  0.1082E-01  0.1082E-01  0.1082E-01  0.0000E+00  0.0000E+00  0.0000E+00  0.0000E+00  0.0000E+00
     -1.782  0.1675E+00  0.1292E-01  0.1292E-01  0.1292E-01  0.0000E+00  0.0000E+00  0.0000E+00  0.0000E+00  0.0000E+00
     -1.703  0.1682E+00  0.1344E-01  0.1344E-01  0.1344E-01  0.0000E+00  0.0000E+00  0.0000E+00  0.0000E+00  0.0000E+00
     -1.623  0.2073E+00  0.1757E-01  0.1757E-01  0.1757E-01  0.0000E+00  0.0000E+00  0.0000E+00  0.0000E+00  0.0000E+00
     -1.543  0.4551E+00  0.4230E-01  0.4230E-01  0.4230E-01  0.0000E+00  0.0000E+00  0.0000E+00  0.0000E+00  0.0000E+00
     -1.463  0.1864E+00  0.1784E-01  0.1784E-01  0.1784E-01  0.0000E+00  0.0000E+00  0.0000E+00  0.0000E+00  0.0000E+00
     -1.384  0.6696E-01  0.6718E-02  0.6718E-02  0.6718E-02  0.0000E+00  0.0000E+00  0.0000E+00  0.0000E+00  0.0000E+00
     -1.304  0.6096E-01  0.6539E-02  0.6539E-02  0.6539E-02  0.0000E+00  0.0000E+00  0.0000E+00  0.0000E+00  0.0000E+00
     -1.224  0.2197E+00  0.5297E-01  0.5297E-01  0.5297E-01  0.0000E+00  0.0000E+00  0.0000E+00  0.0000E+00  0.0000E+00
     -1.144  0.2867E+00  0.6330E-01  0.6330E-01  0.6330E-01  0.0000E+00  0.0000E+00  0.0000E+00  0.0000E+00  0.0000E+00
     -1.064  0.3125E+00  0.6073E-01  0.6073E-01  0.6073E-01  0.0000E+00  0.0000E+00  0.0000E+00  0.0000E+00  0.0000E+00
     -0.985  0.2901E-01  0.4480E-02  0.4480E-02  0.4480E-02  0.0000E+00  0.0000E+00  0.0000E+00  0.0000E+00  0.0000E+00
     -0.905  0.9214E-02  0.2676E-02  0.2676E-02  0.2676E-02  0.0000E+00  0.0000E+00  0.0000E+00  0.0000E+00  0.0000E+00
     -0.825  0.1041E-01  0.1283E-02  0.1283E-02  0.1283E-02  0.0000E+00  0.0000E+00  0.0000E+00  0.0000E+00  0.0000E+00
     -0.745  0.3338E-01  0.5198E-02  0.5198E-02  0.5198E-02  0.0000E+00  0.0000E+00  0.0000E+00  0.0000E+00  0.0000E+00
     -0.666  0.2798E-02  0.7966E-03  0.7966E-03  0.7966E-03  0.0000E+00  0.0000E+00  0.0000E+00  0.0000E+00  0.0000E+00
     -0.586  0.1244E-01  0.1702E-02  0.1702E-02  0.1702E-02  0.0000E+00  0.0000E+00  0.0000E+00  0.0000E+00  0.0000E+00
     -0.506  0.1266E-01  0.3007E-02  0.3007E-02  0.3007E-02  0.0000E+00  0.0000E+00  0.0000E+00  0.0000E+00  0.0000E+00
     -0.426  0.1847E-01  0.2573E-02  0.2573E-02  0.2573E-02  0.0000E+00  0.0000E+00  0.0000E+00  0.0000E+00  0.0000E+00
     -0.347  0.1390E-01  0.1972E-02  0.1972E-02  0.1972E-02  0.0000E+00  0.0000E+00  0.0000E+00  0.0000E+00  0.0000E+00
     -0.267  0.7931E-02  0.1608E-02  0.1608E-02  0.1608E-02  0.0000E+00  0.0000E+00  0.0000E+00  0.0000E+00  0.0000E+00
     -0.187  0.7882E-02  0.2348E-02  0.2348E-02  0.2348E-02  0.0000E+00  0.0000E+00  0.0000E+00  0.0000E+00  0.0000E+00
     -0.107  0.1054E-01  0.1503E-02  0.1503E-02  0.1503E-02  0.0000E+00  0.0000E+00  0.0000E+00  0.0000E+00  0.0000E+00
     -0.028  0.2368E-01  0.3324E-02  0.3324E-02  0.3324E-02  0.0000E+00  0.0000E+00  0.0000E+00  0.0000E+00  0.0000E+00
      0.052  0.8206E-02  0.2508E-02  0.2508E-02  0.2508E-02  0.0000E+00  0.0000E+00  0.0000E+00  0.0000E+00  0.0000E+00
      0.132  0.2812E-02  0.8286E-03  0.8286E-03  0.8286E-03  0.0000E+00  0.0000E+00  0.0000E+00  0.0000E+00  0.0000E+00
      0.212  0.1462E-01  0.2548E-02  0.2548E-02  0.2548E-02  0.0000E+00  0.0000E+00  0.0000E+00  0.0000E+00  0.0000E+00
      0.291  0.1691E-01  0.2308E-02  0.2308E-02  0.2308E-02  0.0000E+00  0.0000E+00  0.0000E+00  0.0000E+00  0.0000E+00
      0.371  0.1098E-01  0.3168E-02  0.3168E-02  0.3168E-02  0.0000E+00  0.0000E+00  0.0000E+00  0.0000E+00  0.0000E+00
      0.451  0.4163E-02  0.9710E-03  0.9710E-03  0.9710E-03  0.0000E+00  0.0000E+00  0.0000E+00  0.0000E+00  0.0000E+00
      0.531  0.1228E-01  0.2343E-02  0.2343E-02  0.2343E-02  0.0000E+00  0.0000E+00  0.0000E+00  0.0000E+00  0.0000E+00
      0.610  0.3933E-02  0.5753E-03  0.5753E-03  0.5753E-03  0.0000E+00  0.0000E+00  0.0000E+00  0.0000E+00  0.0000E+00
      0.690  0.2182E-01  0.4701E-02  0.4701E-02  0.4701E-02  0.0000E+00  0.0000E+00  0.0000E+00  0.0000E+00  0.0000E+00
      0.770  0.7276E-02  0.1809E-02  0.1809E-02  0.1809E-02  0.0000E+00  0.0000E+00  0.0000E+00  0.0000E+00  0.0000E+00
      0.850  0.9632E-02  0.2014E-02  0.2014E-02  0.2014E-02  0.0000E+00  0.0000E+00  0.0000E+00  0.0000E+00  0.0000E+00
      0.930  0.3233E-04  0.5468E-05  0.5468E-05  0.5468E-05  0.0000E+00  0.0000E+00  0.0000E+00  0.0000E+00  0.0000E+00
      1.009  0.1761E-01  0.3575E-02  0.3575E-02  0.3575E-02  0.0000E+00  0.0000E+00  0.0000E+00  0.0000E+00  0.0000E+00
      1.089  0.1331E-01  0.3551E-02  0.3551E-02  0.3551E-02  0.0000E+00  0.0000E+00  0.0000E+00  0.0000E+00  0.0000E+00
      1.169  0.1052E-01  0.2421E-02  0.2421E-02  0.2421E-02  0.0000E+00  0.0000E+00  0.0000E+00  0.0000E+00  0.0000E+00
      1.249  0.1639E-04  0.3894E-04  0.3894E-04  0.3894E-04  0.0000E+00  0.0000E+00  0.0000E+00  0.0000E+00  0.0000E+00
      1.328  0.1983E-02  0.1060E-01  0.1060E-01  0.1060E-01  0.0000E+00  0.0000E+00  0.0000E+00  0.0000E+00  0.0000E+00
      1.408  0.2742E-01  0.6622E-01  0.6622E-01  0.6622E-01  0.0000E+00  0.0000E+00  0.0000E+00  0.0000E+00  0.0000E+00
      1.488  0.1613E-01  0.1332E+00  0.1332E+00  0.1332E+00  0.0000E+00  0.0000E+00  0.0000E+00  0.0000E+00  0.0000E+00
      1.568  0.3405E-02  0.6980E-01  0.6980E-01  0.6980E-01  0.0000E+00  0.0000E+00  0.0000E+00  0.0000E+00  0.0000E+00
      1.647  0.5637E-02  0.7362E-01  0.7362E-01  0.7362E-01  0.0000E+00  0.0000E+00  0.0000E+00  0.0000E+00  0.0000E+00
      1.727  0.1738E-01  0.6041E-01  0.6041E-01  0.6041E-01  0.0000E+00  0.0000E+00  0.0000E+00  0.0000E+00  0.0000E+00
      1.807  0.2898E-01  0.6018E-01  0.6018E-01  0.6018E-01  0.0000E+00  0.0000E+00  0.0000E+00  0.0000E+00  0.0000E+00
      1.887  0.7243E-02  0.9140E-01  0.9140E-01  0.9140E-01  0.0000E+00  0.0000E+00  0.0000E+00  0.0000E+00  0.0000E+00
      1.966  0.9093E-02  0.7914E-01  0.7914E-01  0.7914E-01  0.0000E+00  0.0000E+00  0.0000E+00  0.0000E+00  0.0000E+00
      2.046  0.2982E-02  0.4962E-01  0.4962E-01  0.4962E-01  0.0000E+00  0.0000E+00  0.0000E+00  0.0000E+00  0.0000E+00
      2.126  0.3149E-01  0.6168E-01  0.6168E-01  0.6168E-01  0.0000E+00  0.0000E+00  0.0000E+00  0.0000E+00  0.0000E+00
      2.206  0.1815E-01  0.4889E-01  0.4889E-01  0.4889E-01  0.0000E+00  0.0000E+00  0.0000E+00  0.0000E+00  0.0000E+00
      2.285  0.9155E-02  0.4719E-01  0.4719E-01  0.4719E-01  0.0000E+00  0.0000E+00  0.0000E+00  0.0000E+00  0.0000E+00
      2.365  0.4709E-02  0.4327E-01  0.4327E-01  0.4327E-01  0.0000E+00  0.0000E+00  0.0000E+00  0.0000E+00  0.0000E+00
      2.445  0.9614E-02  0.4443E-01  0.4443E-01  0.4443E-01  0.0000E+00  0.0000E+00  0.0000E+00  0.0000E+00  0.0000E+00
      2.525  0.3112E-01  0.5582E-01  0.5582E-01  0.5582E-01  0.0000E+00  0.0000E+00  0.0000E+00  0.0000E+00  0.0000E+00
      2.605  0.1254E-01  0.4249E-01  0.4249E-01  0.4249E-01  0.0000E+00  0.0000E+00  0.0000E+00  0.0000E+00  0.0000E+00
      2.684  0.1231E-01  0.6087E-01  0.6087E-01  0.6087E-01  0.0000E+00  0.0000E+00  0.0000E+00  0.0000E+00  0.0000E+00
      2.764  0.2487E-02  0.5240E-01  0.5240E-01  0.5240E-01  0.0000E+00  0.0000E+00  0.0000E+00  0.0000E+00  0.0000E+00
      2.844  0.1523E-01  0.1500E+00  0.1500E+00  0.1500E+00  0.0000E+00  0.0000E+00  0.0000E+00  0.0000E+00  0.0000E+00
      2.924  0.2418E-01  0.1190E+00  0.1190E+00  0.1190E+00  0.0000E+00  0.0000E+00  0.0000E+00  0.0000E+00  0.0000E+00
      3.003  0.9181E-02  0.6500E-01  0.6500E-01  0.6500E-01  0.0000E+00  0.0000E+00  0.0000E+00  0.0000E+00  0.0000E+00
      3.083  0.9455E-02  0.6782E-01  0.6782E-01  0.6782E-01  0.0000E+00  0.0000E+00  0.0000E+00  0.0000E+00  0.0000E+00
      3.163  0.4325E-02  0.5959E-01  0.5959E-01  0.5959E-01  0.0000E+00  0.0000E+00  0.0000E+00  0.0000E+00  0.0000E+00
      3.243  0.1632E-01  0.9076E-01  0.9076E-01  0.9076E-01  0.0000E+00  0.0000E+00  0.0000E+00  0.0000E+00  0.0000E+00
      3.322  0.1785E-01  0.7599E-01  0.7599E-01  0.7599E-01  0.0000E+00  0.0000E+00  0.0000E+00  0.0000E+00  0.0000E+00
      3.402  0.8615E-02  0.5167E-01  0.5167E-01  0.5167E-01  0.0000E+00  0.0000E+00  0.0000E+00  0.0000E+00  0.0000E+00
      3.482  0.3954E-02  0.4325E-01  0.4325E-01  0.4325E-01  0.0000E+00  0.0000E+00  0.0000E+00  0.0000E+00  0.0000E+00
      3.562  0.1347E-01  0.4792E-01  0.4792E-01  0.4792E-01  0.0000E+00  0.0000E+00  0.0000E+00  0.0000E+00  0.0000E+00
      3.641  0.1031E-01  0.4334E-01  0.4334E-01  0.4334E-01  0.0000E+00  0.0000E+00  0.0000E+00  0.0000E+00  0.0000E+00
      3.721  0.1057E-01  0.4172E-01  0.4172E-01  0.4172E-01  0.0000E+00  0.0000E+00  0.0000E+00  0.0000E+00  0.0000E+00
      3.801  0.1142E-01  0.5262E-01  0.5262E-01  0.5262E-01  0.0000E+00  0.0000E+00  0.0000E+00  0.0000E+00  0.0000E+00
      3.881  0.3136E-02  0.3119E-01  0.3119E-01  0.3119E-01  0.0000E+00  0.0000E+00  0.0000E+00  0.0000E+00  0.0000E+00
      3.960  0.1472E-01  0.4991E-01  0.4991E-01  0.4991E-01  0.0000E+00  0.0000E+00  0.0000E+00  0.0000E+00  0.0000E+00
      4.040  0.7338E-02  0.4385E-01  0.4385E-01  0.4385E-01  0.0000E+00  0.0000E+00  0.0000E+00  0.0000E+00  0.0000E+00
      4.120  0.5285E-02  0.4916E-01  0.4916E-01  0.4916E-01  0.0000E+00  0.0000E+00  0.0000E+00  0.0000E+00  0.0000E+00
      4.200  0.8976E-02  0.4641E-01  0.4641E-01  0.4641E-01  0.0000E+00  0.0000E+00  0.0000E+00  0.0000E+00  0.0000E+00
      4.280  0.9924E-02  0.5333E-01  0.5333E-01  0.5333E-01  0.0000E+00  0.0000E+00  0.0000E+00  0.0000E+00  0.0000E+00
      4.359  0.4999E-02  0.7157E-01  0.7157E-01  0.7157E-01  0.0000E+00  0.0000E+00  0.0000E+00  0.0000E+00  0.0000E+00
      4.439  0.5873E-02  0.1308E+00  0.1308E+00  0.1308E+00  0.0000E+00  0.0000E+00  0.0000E+00  0.0000E+00  0.0000E+00
      4.519  0.3225E-03  0.1109E+00  0.1109E+00  0.1109E+00  0.0000E+00  0.0000E+00  0.0000E+00  0.0000E+00  0.0000E+00
      4.599  0.9998E-02  0.4399E-01  0.4399E-01  0.4399E-01  0.0000E+00  0.0000E+00  0.0000E+00  0.0000E+00  0.0000E+00
      4.678  0.4620E-02  0.4717E-01  0.4717E-01  0.4717E-01  0.0000E+00  0.0000E+00  0.0000E+00  0.0000E+00  0.0000E+00
      4.758  0.2096E-02  0.2725E-01  0.2725E-01  0.2725E-01  0.0000E+00  0.0000E+00  0.0000E+00  0.0000E+00  0.0000E+00
      4.838  0.2342E-02  0.3326E-01  0.3326E-01  0.3326E-01  0.0000E+00  0.0000E+00  0.0000E+00  0.0000E+00  0.0000E+00
      4.918  0.4951E-02  0.3662E-01  0.3662E-01  0.3662E-01  0.0000E+00  0.0000E+00  0.0000E+00  0.0000E+00  0.0000E+00
      4.997  0.6047E-02  0.2640E-01  0.2640E-01  0.2640E-01  0.0000E+00  0.0000E+00  0.0000E+00  0.0000E+00  0.0000E+00
      5.077  0.1121E-02  0.3491E-01  0.3491E-01  0.3491E-01  0.0000E+00  0.0000E+00  0.0000E+00  0.0000E+00  0.0000E+00
      5.157  0.2583E-02  0.3133E-01  0.3133E-01  0.3133E-01  0.0000E+00  0.0000E+00  0.0000E+00  0.0000E+00  0.0000E+00