    2    2    1    1
  0.2044253E+02  0.3866873E-09  0.3866873E-09  0.3866873E-09  0.5000000E-15
  1.000000000000000E-004
  CAR 
 Si FCC                                  
      8    250      8
 
  0.0000000E+00  0.0000000E+00  0.0000000E+00  0.4000000E-02
      1         -6.198207   1.000000
      2          5.616973   1.000000
      3          5.616973   1.000000
      4          5.616973   1.000000
      5          8.173894   0.000000
      6          8.173894   0.000000
      7          8.173894   0.000000
      8          8.751776   0.000000
 
  0.2083333E-01  0.0000000E+00  0.2083333E-01  0.4000000E-02
      1         -6.190759   1.000000
      2          5.562994   1.000000
      3          5.585131   1.000000
      4          5.585131   1.000000
      5          8.155305   0.000000
      6          8.214936   0.000000
      7          8.214936   0.000000
      8          8.804684   0.000000
 
  0.4166667E-01  0.0000000E+00  0.4166667E-01  0.4000000E-02
      1         -6.168373   1.000000
      2          5.411345   1.000000
      3          5.495435   1.000000
      4          5.495435   1.000000
      5          8.101149   0.000000
      6          8.332222   0.000000
      7          8.332222   0.000000
      8          8.951754   0.000000
 
  0.6250000E-01  0.0000000E+00  0.6250000E-01  0.4000000E-02
      1         -6.131067   1.000000
      2          5.185192   1.000000
      3          5.361611   1.000000
      4          5.361611   1.000000
      5          8.015659   0.000000
      6          8.511941   0.000000
      7          8.511941   0.000000
      8          9.165081   0.000000
 
  0.8333333E-01  0.0000000E+00  0.8333333E-01  0.4000000E-02
      1         -6.078888   1.000000
      2          4.907944   1.000000
      3          5.198582   1.000000
      4          5.198582   1.000000
      5          7.904766   0.000000
      6          8.739006   0.000000
      7          8.739006   0.000000
      8          9.411102   0.000000
 
  0.1041667E+00  0.0000000E+00  0.1041667E+00  0.4000000E-02
      1         -6.011903   1.000000
      2          4.597260   1.000000
      3          5.018570   1.000000
      4          5.018570   1.000000
      5          7.774989   0.000000
      6          9.001015   0.000000
      7          9.001015   0.000000
      8          9.651902   0.000000
 
  0.1250000E+00  0.0000000E+00  0.1250000E+00  0.4000000E-02
      1         -5.930156   1.000000
      2          4.264954   1.000000
      3          4.830413   1.000000
      4          4.830413   1.000000
      5          7.632623   0.000000
      6          9.288891   0.000000
      7          9.288891   0.000000
      8          9.838018   0.000000
 
  0.1458333E+00  0.0000000E+00  0.1458333E+00  0.4000000E-02
      1         -5.833732   1.000000
      2          3.918581   1.000000
      3          4.640205   1.000000
      4          4.640205   1.000000
      5          7.483220   0.000000
      6          9.596261   0.000000
      7          9.596261   0.000000
      8          9.908464   0.000000
 
  0.1666667E+00  0.0000000E+00  0.1666667E+00  0.4000000E-02
      1         -5.722721   1.000000
      2          3.563005   1.000000
      3          4.452133   1.000000
      4          4.452133   1.000000
      5          7.331500   0.000000
      6          9.828623   0.000000
      7          9.918682   0.000000
      8          9.918682   0.000000
 
  0.1875000E+00  0.0000000E+00  0.1875000E+00  0.4000000E-02
      1         -5.597273   1.000000
      2          3.201384   1.000000
      3          4.269096   1.000000
      4          4.269096   1.000000
      5          7.181322   0.000000
      6          9.626949   0.000000
      7         10.252981   0.000000
      8         10.252982   0.000000
 
  0.2083333E+00  0.0000000E+00  0.2083333E+00  0.4000000E-02
      1         -5.457507   1.000000
      2          2.835840   1.000000
      3          4.093162   1.000000
      4          4.093162   1.000000
      5          7.035823   0.000000
      6          9.357214   0.000000
      7         10.596846   0.000000
      8         10.596846   0.000000
 
  0.2291667E+00  0.0000000E+00  0.2291667E+00  0.4000000E-02
      1         -5.303555   1.000000
      2          2.467905   1.000000
      3          3.925862   1.000000
      4          3.925862   1.000000
      5          6.897555   0.000000
      6          9.058532   0.000000
      7         10.948581   0.000000
      8         10.948582   0.000000
 
  0.2500000E+00  0.0000000E+00  0.2500000E+00  0.4000000E-02
      1         -5.135608   1.000000
      2          2.098699   1.000000
      3          3.768300   1.000000
      4          3.768300   1.000000
      5          6.768575   0.000000
      6          8.752946   0.000000
      7         11.306907   0.000000
      8         11.306907   0.000000
 
  0.2708333E+00  0.0000000E+00  0.2708333E+00  0.4000000E-02
      1         -4.953875   1.000000
      2          1.729176   1.000000
      3          3.621334   1.000000
      4          3.621334   1.000000
      5          6.650573   0.000000
      6          8.452555   0.000000
      7         11.670865   0.000000
      8         11.670865   0.000000
 
  0.2916667E+00  0.0000000E+00  0.2916667E+00  0.4000000E-02
      1         -4.758576   1.000000
      2          1.360166   1.000000
      3          3.485621   1.000000
      4          3.485621   1.000000
      5          6.544948   0.000000
      6          8.164240   0.000000
      7         12.039742   0.000000
      8         12.039742   0.000000
 
  0.3125000E+00  0.0000000E+00  0.3125000E+00  0.4000000E-02
      1         -4.549943   1.000000
      2          0.992452   1.000000
      3          3.361682   1.000000
      4          3.361682   1.000000
      5          6.452876   0.000000
      6          7.892088   0.000000
      7         12.413008   0.000000
      8         12.413008   0.000000
 
  0.3333333E+00  0.0000000E+00  0.3333333E+00  0.4000000E-02
      1         -4.328244   1.000000
      2          0.626779   1.000000
      3          3.249929   1.000000
      4          3.249929   1.000000
      5          6.375365   0.000000
      6          7.638584   0.000000
      7         12.790231   0.000000
      8         12.790231   0.000000
 
  0.3541667E+00  0.0000000E+00  0.3541667E+00  0.4000000E-02
      1         -4.093821   1.000000
      2          0.263962   1.000000
      3          3.150686   1.000000
      4          3.150686   1.000000
      5          6.313284   0.000000
      6          7.405221   0.000000
      7         13.170977   0.000000
      8         13.170977   0.000000
 
  0.3750000E+00  0.0000000E+00  0.3750000E+00  0.4000000E-02
      1         -3.847009   1.000000
      2         -0.095192   1.000000
      3          3.064219   1.000000
      4          3.064219   1.000000
      5          6.267422   0.000000
      6          7.192873   0.000000
      7         13.554735   0.000000
      8         13.554736   0.000000
 
  0.3958333E+00  0.0000000E+00  0.3958333E+00  0.4000000E-02
      1         -3.588166   1.000000
      2         -0.449899   1.000000
      3          2.990739   1.000000
      4          2.990739   1.000000
      5          6.238473   0.000000
      6          7.001984   0.000000
      7         13.940610   0.000000
      8         13.940611   0.000000
 
  0.4166667E+00  0.0000000E+00  0.4166667E+00  0.4000000E-02
      1         -3.317704   1.000000
      2         -0.799400   1.000000
      3          2.930408   1.000000
      4          2.930408   1.000000
      5          6.227080   0.000000
      6          6.832701   0.000000
      7         14.326876   0.000000
      8         14.326876   0.000000
 
  0.4375000E+00  0.0000000E+00  0.4375000E+00  0.4000000E-02
      1         -3.036076   1.000000
      2         -1.142851   1.000000
      3          2.883362   1.000000
      4          2.883362   1.000000
      5          6.233831   0.000000
      6          6.684965   0.000000
      7         14.709649   0.000000
      8         14.709649   0.000000
 
  0.4583333E+00  0.0000000E+00  0.4583333E+00  0.4000000E-02
      1         -2.743809   1.000000
      2         -1.479494   1.000000
      3          2.849692   1.000000
      4          2.849692   1.000000
      5          6.259311   0.000000
      6          6.558572   0.000000
      7         15.078664   0.000000
      8         15.078666   0.000000
 
  0.4791667E+00  0.0000000E+00  0.4791667E+00  0.4000000E-02
      1         -2.441410   1.000000
      2         -1.808595   1.000000
      3          2.829465   1.000000
      4          2.829465   1.000000
      5          6.304037   0.000000
      6          6.453215   0.000000
      7         15.400198   0.000000
      8         15.400210   0.000000
 
  0.5000000E+00  0.0000000E+00  0.5000000E+00  0.4000000E-02
      1         -2.129462   1.000000
      2         -2.129462   1.000000
      3          2.822719   1.000000
      4          2.822719   1.000000
      5          6.368515   0.000000
      6          6.368515   0.000000
      7         15.554240   0.000000
      8         15.554736   0.000000
 
  0.5000000E+00  0.0000000E+00  0.5000000E+00  0.4000000E-02
      1         -2.129462   1.000000
      2         -2.129462   1.000000
      3          2.822719   1.000000
      4          2.822719   1.000000
      5          6.368515   0.000000
      6          6.368515   0.000000
      7         15.554288   0.000000
      8         15.554828   0.000000
 
  0.5000000E+00  0.1041667E-01  0.5104167E+00  0.4000000E-02
      1         -2.128857   1.000000
      2         -2.128857   1.000000
      3          2.817105   1.000000
      4          2.817105   1.000000
      5          6.378861   0.000000
      6          6.378861   0.000000
      7         15.538099   0.000000
      8         15.541511   0.000000
 
  0.5000000E+00  0.2083333E-01  0.5208333E+00  0.4000000E-02
      1         -2.127048   1.000000
      2         -2.127048   1.000000
      3          2.800501   1.000000
      4          2.800501   1.000000
      5          6.409669   0.000000
      6          6.409669   0.000000
      7         15.487176   0.000000
      8         15.487289   0.000000
 
  0.5000000E+00  0.3125000E-01  0.5312500E+00  0.4000000E-02
      1         -2.124062   1.000000
      2         -2.124062   1.000000
      3          2.773579   1.000000
      4          2.773579   1.000000
      5          6.460277   0.000000
      6          6.460277   0.000000
      7         15.396641   0.000000
      8         15.397002   0.000000
 
  0.5000000E+00  0.4166667E-01  0.5416667E+00  0.4000000E-02
      1         -2.119937   1.000000
      2         -2.119937   1.000000
      3          2.737377   1.000000
      4          2.737377   1.000000
      5          6.529672   0.000000
      6          6.529672   0.000000
      7         15.263271   0.000000
      8         15.263382   0.000000
 
  0.5000000E+00  0.5208333E-01  0.5520833E+00  0.4000000E-02
      1         -2.114727   1.000000
      2         -2.114727   1.000000
      3          2.693190   1.000000
      4          2.693190   1.000000
      5          6.616600   0.000000
      6          6.616600   0.000000
      7         15.089917   0.000000
      8         15.089989   0.000000
 
  0.5000000E+00  0.6250000E-01  0.5625000E+00  0.4000000E-02
      1         -2.108501   1.000000
      2         -2.108501   1.000000
      3          2.642445   1.000000
      4          2.642445   1.000000
      5          6.719677   0.000000
      6          6.719677   0.000000
      7         14.884624   0.000000
      8         14.884647   0.000000
 
  0.5000000E+00  0.7291667E-01  0.5729167E+00  0.4000000E-02
      1         -2.101347   1.000000
      2         -2.101347   1.000000
      3          2.586604   1.000000
      4          2.586604   1.000000
      5          6.837492   0.000000
      6          6.837492   0.000000
      7         14.656536   0.000000
      8         14.656543   0.000000
 
  0.5000000E+00  0.8333333E-01  0.5833333E+00  0.4000000E-02
      1         -2.093366   1.000000
      2         -2.093366   1.000000
      3          2.527093   1.000000
      4          2.527093   1.000000
      5          6.968674   0.000000
      6          6.968674   0.000000
      7         14.413080   0.000000
      8         14.413084   0.000000
 
  0.5000000E+00  0.9375000E-01  0.5937500E+00  0.4000000E-02
      1         -2.084671   1.000000
      2         -2.084671   1.000000
      3          2.465260   1.000000
      4          2.465260   1.000000
      5          7.111942   0.000000
      6          7.111942   0.000000
      7         14.159564   0.000000
      8         14.159564   0.000000
 
  0.5000000E+00  0.1041667E+00  0.6041667E+00  0.4000000E-02
      1         -2.075394   1.000000
      2         -2.075394   1.000000
      3          2.402337   1.000000
      4          2.402337   1.000000
      5          7.266125   0.000000
      6          7.266125   0.000000
      7         13.899604   0.000000
      8         13.899604   0.000000
 
  0.5000000E+00  0.1145833E+00  0.6145833E+00  0.4000000E-02
      1         -2.065678   1.000000
      2         -2.065678   1.000000
      3          2.339442   1.000000
      4          2.339442   1.000000
      5          7.430174   0.000000
      6          7.430174   0.000000
      7         13.635697   0.000000
      8         13.635697   0.000000
 
  0.5000000E+00  0.1250000E+00  0.6250000E+00  0.4000000E-02
      1         -2.055677   1.000000
      2         -2.055677   1.000000
      3          2.277578   1.000000
      4          2.277578   1.000000
      5          7.603154   0.000000
      6          7.603155   0.000000
      7         13.369600   0.000000
      8         13.369600   0.000000
 
  0.5000000E+00  0.1354167E+00  0.6354167E+00  0.4000000E-02
      1         -2.045557   1.000000
      2         -2.045557   1.000000
      3          2.217636   1.000000
      4          2.217636   1.000000
      5          7.784227   0.000000
      6          7.784227   0.000000
      7         13.102604   0.000000
      8         13.102604   0.000000
 
  0.5000000E+00  0.1458333E+00  0.6458333E+00  0.4000000E-02
      1         -2.035489   1.000000
      2         -2.035489   1.000000
      3          2.160410   1.000000
      4          2.160410   1.000000
      5          7.972637   0.000000
      6          7.972637   0.000000
      7         12.835701   0.000000
      8         12.835701   0.000000
 
  0.5000000E+00  0.1562500E+00  0.6562500E+00  0.4000000E-02
      1         -2.025653   1.000000
      2         -2.025653   1.000000
      3          2.106602   1.000000
      4          2.106602   1.000000
      5          8.167673   0.000000
      6          8.167673   0.000000
      7         12.569700   0.000000
      8         12.569700   0.000000
 
  0.5000000E+00  0.1666667E+00  0.6666667E+00  0.4000000E-02
      1         -2.016232   1.000000
      2         -2.016232   1.000000
      3          2.056826   1.000000
      4          2.056826   1.000000
      5          8.368653   0.000000
      6          8.368653   0.000000
      7         12.305317   0.000000
      8         12.305318   0.000000
 
  0.5000000E+00  0.1770833E+00  0.6770833E+00  0.4000000E-02
      1         -2.007402   1.000000
      2         -2.007402   1.000000
      3          2.011632   1.000000
      4          2.011632   1.000000
      5          8.574873   0.000000
      6          8.574873   0.000000
      7         12.043258   0.000000
      8         12.043258   0.000000
 
  0.5000000E+00  0.1875000E+00  0.6875000E+00  0.4000000E-02
      1         -1.999338   1.000000
      2         -1.999338   1.000000
      3          1.971499   1.000000
      4          1.971499   1.000000
      5          8.785520   0.000000
      6          8.785520   0.000000
      7         11.784307   0.000000
      8         11.784307   0.000000
 
  0.5000000E+00  0.1979167E+00  0.6979167E+00  0.4000000E-02
      1         -1.992199   1.000000
      2         -1.992199   1.000000
      3          1.936838   1.000000
      4          1.936838   1.000000
      5          8.999519   0.000000
      6          8.999519   0.000000
      7         11.529504   0.000000
      8         11.529504   0.000000
 
  0.5000000E+00  0.2083333E+00  0.7083333E+00  0.4000000E-02
      1         -1.986134   1.000000
      2         -1.986134   1.000000
      3          1.907998   1.000000
      4          1.907998   1.000000
      5          9.215181   0.000000
      6          9.215181   0.000000
      7         11.280504   0.000000
      8         11.280504   0.000000
 
  0.5000000E+00  0.2187500E+00  0.7187500E+00  0.4000000E-02
      1         -1.981274   1.000000
      2         -1.981274   1.000000
      3          1.885266   1.000000
      4          1.885266   1.000000
      5          9.429299   0.000000
      6          9.429299   0.000000
      7         11.040487   0.000000
      8         11.040488   0.000000
 
  0.5000000E+00  0.2291667E+00  0.7291667E+00  0.4000000E-02
      1         -1.977725   1.000000
      2         -1.977725   1.000000
      3          1.868867   1.000000
      4          1.868867   1.000000
      5          9.634327   0.000000
      6          9.634327   0.000000
      7         10.816976   0.000000
      8         10.816976   0.000000
 
  0.5000000E+00  0.2395833E+00  0.7395833E+00  0.4000000E-02
      1         -1.975563   1.000000
      2         -1.975563   1.000000
      3          1.858962   1.000000
      4          1.858962   1.000000
      5          9.808268   0.000000
      6          9.808268   0.000000
      7         10.631949   0.000000
      8         10.631949   0.000000
 
  0.5000000E+00  0.2500000E+00  0.7500000E+00  0.4000000E-02
      1         -1.974842   1.000000
      2         -1.974842   1.000000
      3          1.855645   1.000000
      4          1.855645   1.000000
      5          9.887323   0.000000
      6          9.887323   0.000000
      7         10.549198   0.000000
      8         10.549198   0.000000
 
  0.5000000E+00  0.2500000E+00  0.7500000E+00  0.4000000E-02
      1         -1.974842   1.000000
      2         -1.974842   1.000000
      3          1.855645   1.000000
      4          1.855645   1.000000
      5          9.887323   0.000000
      6          9.887323   0.000000
      7         10.549198   0.000000
      8         10.549198   0.000000
 
  0.4947917E+00  0.2552083E+00  0.7500000E+00  0.4000000E-02
      1         -2.021079   1.000000
      2         -1.929203   1.000000
      3          1.821039   1.000000
      4          1.893552   1.000000
      5          9.811263   0.000000
      6          9.915394   0.000000
      7         10.552657   0.000000
      8         10.597527   0.000000
 
  0.4895833E+00  0.2604167E+00  0.7500000E+00  0.4000000E-02
      1         -2.065389   1.000000
      2         -1.886723   1.000000
      3          1.787681   1.000000
      4          1.936737   1.000000
      5          9.674957   0.000000
      6          9.930398   0.000000
      7         10.621059   0.000000
      8         10.661849   0.000000
 
  0.4843750E+00  0.2656250E+00  0.7500000E+00  0.4000000E-02
      1         -2.107766   1.000000
      2         -1.847390   1.000000
      3          1.755607   1.000000
      4          1.985053   1.000000
      5          9.509922   0.000000
      6          9.934879   0.000000
      7         10.723043   0.000000
      8         10.739577   0.000000
 
  0.4791667E+00  0.2708333E+00  0.7500000E+00  0.4000000E-02
      1         -2.148203   1.000000
      2         -1.811168   1.000000
      3          1.724847   1.000000
      4          2.038297   1.000000
      5          9.333154   0.000000
      6          9.931681   0.000000
      7         10.827810   0.000000
      8         10.841780   0.000000
 
  0.4739583E+00  0.2760417E+00  0.7500000E+00  0.4000000E-02
      1         -2.186695   1.000000
      2         -1.777991   1.000000
      3          1.695430   1.000000
      4          2.096208   1.000000
      5          9.152228   0.000000
      6          9.923250   0.000000
      7         10.924045   0.000000
      8         10.969885   0.000000
 
  0.4687500E+00  0.2812500E+00  0.7500000E+00  0.4000000E-02
      1         -2.223240   1.000000
      2         -1.747766   1.000000
      3          1.667380   1.000000
      4          2.158465   1.000000
      5          8.970752   0.000000
      6          9.911429   0.000000
      7         11.026370   0.000000
      8         11.103956   0.000000
 
  0.4635417E+00  0.2864583E+00  0.7500000E+00  0.4000000E-02
      1         -2.257832   1.000000
      2         -1.720380   1.000000
      3          1.640722   1.000000
      4          2.224689   1.000000
      5          8.790704   0.000000
      6          9.897538   0.000000
      7         11.133396   0.000000
      8         11.242268   0.000000
 
  0.4583333E+00  0.2916667E+00  0.7500000E+00  0.4000000E-02
      1         -2.290467   1.000000
      2         -1.695694   1.000000
      3          1.615479   1.000000
      4          2.294449   1.000000
      5          8.613333   0.000000
      6          9.882507   0.000000
      7         11.244125   0.000000
      8         11.383853   0.000000
 
  0.4531250E+00  0.2968750E+00  0.7500000E+00  0.4000000E-02
      1         -2.321144   1.000000
      2         -1.673561   1.000000
      3          1.591671   1.000000
      4          2.367239   1.000000
      5          8.439550   0.000000
      6          9.866988   0.000000
      7         11.357814   0.000000
      8         11.528121   0.000000
 
  0.4479167E+00  0.3020833E+00  0.7500000E+00  0.4000000E-02
      1         -2.349856   1.000000
      2         -1.653823   1.000000
      3          1.569318   1.000000
      4          2.442497   1.000000
      5          8.270120   0.000000
      6          9.851447   0.000000
      7         11.473909   0.000000
      8         11.674680   0.000000
 
  0.4427083E+00  0.3072917E+00  0.7500000E+00  0.4000000E-02
      1         -2.376600   1.000000
      2         -1.636314   1.000000
      3          1.548436   1.000000
      4          2.519585   1.000000
      5          8.105755   0.000000
      6          9.836222   0.000000
      7         11.591972   0.000000
      8         11.823249   0.000000
 
  0.4375000E+00  0.3125000E+00  0.7500000E+00  0.4000000E-02
      1         -2.401376   1.000000
      2         -1.620872   1.000000
      3          1.529039   1.000000
      4          2.597782   1.000000
      5          7.947169   0.000000
      6          9.821563   0.000000
      7         11.711631   0.000000
      8         11.973607   0.000000
 
  0.4322917E+00  0.3177083E+00  0.7500000E+00  0.4000000E-02
      1         -2.424179   1.000000
      2         -1.607333   1.000000
      3          1.511145   1.000000
      4          2.676288   1.000000
      5          7.795123   0.000000
      6          9.807655   0.000000
      7         11.832567   0.000000
      8         12.125569   0.000000
 
  0.4270833E+00  0.3229167E+00  0.7500000E+00  0.4000000E-02
      1         -2.445007   1.000000
      2         -1.595540   1.000000
      3          1.494765   1.000000
      4          2.754206   1.000000
      5          7.650445   0.000000
      6          9.794643   0.000000
      7         11.954474   0.000000
      8         12.278964   0.000000
 
  0.4218750E+00  0.3281250E+00  0.7500000E+00  0.4000000E-02
      1         -2.463857   1.000000
      2         -1.585346   1.000000
      3          1.479911   1.000000
      4          2.830537   1.000000
      5          7.514050   0.000000
      6          9.782635   0.000000
      7         12.077042   0.000000
      8         12.433618   0.000000
 
  0.4166667E+00  0.3333333E+00  0.7500000E+00  0.4000000E-02
      1         -2.480730   1.000000
      2         -1.576613   1.000000
      3          1.466593   1.000000
      4          2.904170   1.000000
      5          7.386963   0.000000
      6          9.771719   0.000000
      7         12.199901   0.000000
      8         12.589323   0.000000
 
  0.4114583E+00  0.3385417E+00  0.7500000E+00  0.4000000E-02
      1         -2.495621   1.000000
      2         -1.569213   1.000000
      3          1.454821   1.000000
      4          2.973894   1.000000
      5          7.270309   0.000000
      6          9.761960   0.000000
      7         12.322632   0.000000
      8         12.745850   0.000000
 
  0.4062500E+00  0.3437500E+00  0.7500000E+00  0.4000000E-02
      1         -2.508530   1.000000
      2         -1.563039   1.000000
      3          1.444603   1.000000
      4          3.038391   1.000000
      5          7.165313   0.000000
      6          9.753413   0.000000
      7         12.444633   0.000000
      8         12.902865   0.000000
 
  0.4010417E+00  0.3489583E+00  0.7500000E+00  0.4000000E-02
      1         -2.519455   1.000000
      2         -1.557982   1.000000
      3          1.435945   1.000000
      4          3.096285   1.000000
      5          7.073285   0.000000
      6          9.746119   0.000000
      7         12.565008   0.000000
      8         13.059864   0.000000
 
  0.3958333E+00  0.3541667E+00  0.7500000E+00  0.4000000E-02
      1         -2.528396   1.000000
      2         -1.553965   1.000000
      3          1.428854   1.000000
      4          3.146169   1.000000
      5          6.995561   0.000000
      6          9.740109   0.000000
      7         12.682243   0.000000
      8         13.216007   0.000000
 
  0.3906250E+00  0.3593750E+00  0.7500000E+00  0.4000000E-02
      1         -2.535349   1.000000
      2         -1.550912   1.000000
      3          1.423334   1.000000
      4          3.186693   1.000000
      5          6.933443   0.000000
      6          9.735412   0.000000
      7         12.793526   0.000000
      8         13.369445   0.000000
 
  0.3854167E+00  0.3645833E+00  0.7500000E+00  0.4000000E-02
      1         -2.540317   1.000000
      2         -1.548770   1.000000
      3          1.419388   1.000000
      4          3.216639   1.000000
      5          6.888107   0.000000
      6          9.732044   0.000000
      7         12.893085   0.000000
      8         13.522177   0.000000
 
  0.3802083E+00  0.3697917E+00  0.7500000E+00  0.4000000E-02
      1         -2.543301   1.000000
      2         -1.547503   1.000000
      3          1.417018   1.000000
      4          3.235027   1.000000
      5          6.860493   0.000000
      6          9.730016   0.000000
      7         12.968459   0.000000
      8         13.574858   0.000000
 
  0.3750000E+00  0.3750000E+00  0.7500000E+00  0.4000000E-02
      1         -2.544295   1.000000
      2         -1.547082   1.000000
      3          1.416228   1.000000
      4          3.241231   1.000000
      5          6.851218   0.000000
      6          9.729340   0.000000
      7         12.998275   0.000000
      8         13.537638   0.000000
 
  0.3750000E+00  0.3750000E+00  0.7500000E+00  0.4000000E-02
      1         -2.544295   1.000000
      2         -1.547082   1.000000
      3          1.416228   1.000000
      4          3.241231   1.000000
      5          6.851218   0.000000
      6          9.729340   0.000000
      7         12.998222   0.000000
      8         13.536899   0.000000
 
  0.3593750E+00  0.3593750E+00  0.7187500E+00  0.4000000E-02
      1         -2.695354   1.000000
      2         -1.392976   1.000000
      3          1.334137   1.000000
      4          3.347968   1.000000
      5          6.974406   0.000000
      6         10.357654   0.000000
      7         12.623962   0.000000
      8         13.147484   0.000000
 
  0.3437500E+00  0.3437500E+00  0.6875000E+00  0.4000000E-02
      1         -2.871696   1.000000
      2         -1.221042   1.000000
      3          1.301527   1.000000
      4          3.464871   1.000000
      5          7.109178   0.000000
      6         10.990640   0.000000
      7         12.260529   0.000000
      8         12.790657   0.000000
 
  0.3281250E+00  0.3281250E+00  0.6562500E+00  0.4000000E-02
      1         -3.069177   1.000000
      2         -1.031378   1.000000
      3          1.316155   1.000000
      4          3.591017   1.000000
      5          7.254226   0.000000
      6         11.573947   0.000000
      7         11.909342   0.000000
      8         12.514022   0.000000
 
  0.3125000E+00  0.3125000E+00  0.6250000E+00  0.4000000E-02
      1         -3.282592   1.000000
      2         -0.824128   1.000000
      3          1.374035   1.000000
      4          3.725285   1.000000
      5          7.407867   0.000000
      6         11.571435   0.000000
      7         11.787713   0.000000
      8         12.549622   0.000000
 
  0.2968750E+00  0.2968750E+00  0.5937500E+00  0.4000000E-02
      1         -3.506510   1.000000
      2         -0.599425   1.000000
      3          1.470527   1.000000
      4          3.866396   1.000000
      5          7.567947   0.000000
      6         11.247597   0.000000
      7         11.567642   0.000000
      8         12.295016   0.000000
 
  0.2812500E+00  0.2812500E+00  0.5625000E+00  0.4000000E-02
      1         -3.735859   1.000000
      2         -0.357436   1.000000
      3          1.601014   1.000000
      4          4.012848   1.000000
      5          7.731691   0.000000
      6         10.938434   0.000000
      7         11.276910   0.000000
      8         12.059651   0.000000
 
  0.2656250E+00  0.2656250E+00  0.5312500E+00  0.4000000E-02
      1         -3.966230   1.000000
      2         -0.098354   1.000000
      3          1.761294   1.000000
      4          4.162918   1.000000
      5          7.895542   0.000000
      6         10.644423   0.000000
      7         10.983969   0.000000
      8         11.846474   0.000000
 