       N       E                     dE             d eps       ncg     rms          rms(c)
DAV:   1     0.540378232077E+01    0.54038E+01   -0.32549E+03  4000   0.771E+02
DAV:   2    -0.107912362089E+02   -0.16195E+02   -0.15579E+02  6000   0.781E+01
DAV:   3    -0.110382790734E+02   -0.24704E+00   -0.24704E+00  5280   0.116E+01
DAV:   4    -0.110393737837E+02   -0.10947E-02   -0.10947E-02  6544   0.821E-01
DAV:   5    -0.110393754541E+02   -0.16704E-05   -0.16704E-05  5304   0.232E-02
DAV:   6    -0.110393754737E+02   -0.19595E-07   -0.19596E-07  6600   0.158E-03
DAV:   7    -0.110393754737E+02   -0.29672E-10   -0.29581E-10  5544   0.544E-05
   1 F= -.11039375E+02 E0= -.11039375E+02  d E =-.559345E-20
