 vasp.6.4.2 20Jul23 (build Oct 16 2024 22:45:58) complex                        
  
 executed on             LinuxIFC date 2025.01.29  08:49:39
 running    4 mpi-ranks, on    1 nodes
 distrk:  each k-point on    4 cores,    1 groups
 distr:  one band on NCORE=   1 cores,    4 groups


--------------------------------------------------------------------------------------------------------


 INCAR:
   SYSTEM = Si FCC
   PREC = Accurate
   EDIFF = 1E-10
   EDIFFG = -1E-5
   ISMEAR = 0
   SIGMA = 0.03
   GGA = PE
   ENCUT = 520
   NSW = 0
   IBRION = -1
   ISIF = 0
   LWAVE = .FALSE.
   ICHARG = 11
   LORBIT = 11

 POTCAR:    PAW_PBE Si 05Jan2001                  
 POTCAR:    PAW_PBE Si 05Jan2001                  
   SHA256 =  79d9987ad8750f624c4d6acb2a16d13abf6a777132adc04dc6c8399be72b42bb Si/POTCAR             
   COPYR  = (c) Copyright 05Jan2001 Georg Kresse                                                    
   COPYR  = This file is part of the software VASP. Any use, copying, and all other rights are regul
   COPYR  = If you do not have a valid VASP license, you may not use, copy or distribute this file. 
   VRHFIN =Si: s2p2                                                                                 
   LEXCH  = PE                                                                                      
   EATOM  =   103.0669 eV,    7.5752 Ry                                                             
                                                                                                    
   TITEL  = PAW_PBE Si 05Jan2001                                                                    
   LULTRA =        F    use ultrasoft PP ?                                                          
   IUNSCR =        1    unscreen: 0-lin 1-nonlin 2-no                                               
   RPACOR =    1.500    partial core radius                                                         
   POMASS =   28.085; ZVAL   =    4.000    mass and valenz                                          
   RCORE  =    1.900    outmost cutoff radius                                                       
   RWIGS  =    2.480; RWIGS  =    1.312    wigner-seitz radius (au A)                               
   ENMAX  =  245.345; ENMIN  =  184.009 eV                                                          
   ICORE  =        2    local potential                                                             
   LCOR   =        T    correct aug charges                                                         
   LPAW   =        T    paw PP                                                                      
   EAUG   =  322.069                                                                                
   DEXC   =    0.000                                                                                
   RMAX   =    1.950    core radius for proj-oper                                                   
   RAUG   =    1.300    factor for augmentation sphere                                              
   RDEP   =    1.993    radius for radial grids                                                     
   RDEPT  =    1.837    core radius for aug-charge                                                  
                                                                                                    
   Atomic configuration                                                                             
    6 entries                                                                                       
     n  l   j            E        occ.                                                              
     1  0  0.50     -1785.8828   2.0000                                                             
     2  0  0.50      -139.4969   2.0000                                                             
     2  1  1.50       -95.5546   6.0000                                                             
     3  0  0.50       -10.8127   2.0000                                                             
     3  1  0.50        -4.0811   2.0000                                                             
     3  2  1.50        -4.0817   0.0000                                                             
   Description                                                                                      
     l       E           TYP  RCUT    TYP  RCUT                                                     
     0    -10.8127223     23  1.900                                                                 
     0     -7.6451159     23  1.900                                                                 
     1     -4.0811372     23  1.900                                                                 
     1      2.4879257     23  1.900                                                                 
     2     -4.0817478      7  1.900                                                                 
  local pseudopotential read in
  partial core-charges read in
  partial kinetic energy density read in
  atomic valenz-charges read in
  non local Contribution for L=           0  read in
    real space projection operators read in
  non local Contribution for L=           0  read in
    real space projection operators read in
  non local Contribution for L=           1  read in
    real space projection operators read in
  non local Contribution for L=           1  read in
    real space projection operators read in
    PAW grid and wavefunctions read in
 
   number of l-projection  operators is LMAX  =           4
   number of lm-projection operators is LMMAX =           8
 
  PAW_PBE Si 05Jan2001                  :
 energy of atom  1       EATOM= -103.0669
 kinetic energy error for atom=    0.0005 (will be added to EATOM!!)
 
 
 POSCAR: Si [FCC,FCC,cF8]
  positions in direct lattice
  velocities in cartesian coordinates
 exchange correlation table for  LEXCH =        8
   RHO(1)=    0.500       N(1)  =     2000
   RHO(2)=  100.500       N(2)  =     4000

 VTST: version 4.1, (05/19/21)

 CHAIN: initializing optimizer
 
 OPT: Using VASP Dynamics algorithm
 CHAIN: Read ICHAIN            0
 
 POSCAR: Si [FCC,FCC,cF8]
  positions in direct lattice
  velocities in cartesian coordinates
 


--------------------------------------------------------------------------------------------------------


 ion  position               nearest neighbor table
   1  0.000  0.000  0.000-   2 2.37   2 2.37   2 2.37   2 2.37
   2  0.250  0.250  0.250-   1 2.37   1 2.37   1 2.37   1 2.37
 
  LATTYP: Found a face centered cubic cell.
 ALAT       =     5.4685839824
  
  Lattice vectors:
  
 A1 = (   0.0000000000,   2.7342919912,   2.7342919912)
 A2 = (   2.7342919912,   0.0000000000,   2.7342919912)
 A3 = (   2.7342919912,   2.7342919912,   0.0000000000)


Analysis of symmetry for initial positions (statically):
=====================================================================
 Subroutine PRICEL returns:
 Original cell was already a primitive cell.
 

 Routine SETGRP: Setting up the symmetry group for a 
 face centered cubic supercell.


 Subroutine GETGRP returns: Found 48 space group operations
 (whereof 24 operations were pure point group operations)
 out of a pool of 48 trial point group operations.


The static configuration has the point symmetry T_d .
 The point group associated with its full space group is O_h .


Analysis of symmetry for dynamics (positions and initial velocities):
=====================================================================
 Subroutine PRICEL returns:
 Original cell was already a primitive cell.
 

 Routine SETGRP: Setting up the symmetry group for a 
 face centered cubic supercell.


 Subroutine GETGRP returns: Found 48 space group operations
 (whereof 24 operations were pure point group operations)
 out of a pool of 48 trial point group operations.


The dynamic configuration has the point symmetry T_d .
 The point group associated with its full space group is O_h .


 Subroutine INISYM returns: Found 48 space group operations
 (whereof 24 operations are pure point group operations),
 and found     1 'primitive' translations


----------------------------------------------------------------------------------------

                                     Primitive cell                                     

  volume of cell :      40.8851

  direct lattice vectors                    reciprocal lattice vectors
     0.000000000  2.734291991  2.734291991    -0.182862694  0.182862694  0.182862694
     2.734291991  0.000000000  2.734291991     0.182862694 -0.182862694  0.182862694
     2.734291991  2.734291991  0.000000000     0.182862694  0.182862694 -0.182862694

  length of vectors
     3.866872817  3.866872817  3.866872817     0.316727477  0.316727477  0.316727477

  position of ions in fractional coordinates (direct lattice)
     0.000000000  0.000000000  0.000000000
     0.250000000  0.250000000  0.250000000

  ion indices of the primitive-cell ions
   primitive index   ion index
                 1           1
                 2           2

----------------------------------------------------------------------------------------

 
 
 KPOINTS: FCC (face-centered cubic) G-X-W-K-G-L-U-

Interpolating k-points between supplied coordinates.

 Line segments in fractional coordinates (reciprocal lattice):
    0.000000  0.000000  0.000000  ...  0.500000  0.000000  0.500000
    0.500000  0.000000  0.500000  ...  0.500000  0.250000  0.750000
    0.500000  0.250000  0.750000  ...  0.375000  0.375000  0.750000
    0.375000  0.375000  0.750000  ...  0.000000  0.000000  0.000000
    0.000000  0.000000  0.000000  ...  0.500000  0.500000  0.500000
    0.500000  0.500000  0.500000  ...  0.625000  0.250000  0.625000
    0.625000  0.250000  0.625000  ...  0.500000  0.250000  0.750000
    0.500000  0.250000  0.750000  ...  0.500000  0.500000  0.500000
    0.500000  0.500000  0.500000  ...  0.375000  0.375000  0.750000
    0.625000  0.250000  0.625000  ...  0.500000  0.000000  0.500000

 Generated    25 points on each line segment, for a total of    250 k-points:

 Following reciprocal coordinates:
            Coordinates               Weight
  0.000000  0.000000  0.000000      0.004000
  0.020833  0.000000  0.020833      0.004000
  0.041667  0.000000  0.041667      0.004000
  0.062500  0.000000  0.062500      0.004000
  0.083333  0.000000  0.083333      0.004000
  0.104167  0.000000  0.104167      0.004000
  0.125000  0.000000  0.125000      0.004000
  0.145833  0.000000  0.145833      0.004000
  0.166667  0.000000  0.166667      0.004000
  0.187500  0.000000  0.187500      0.004000
  0.208333  0.000000  0.208333      0.004000
  0.229167  0.000000  0.229167      0.004000
  0.250000  0.000000  0.250000      0.004000
  0.270833  0.000000  0.270833      0.004000
  0.291667  0.000000  0.291667      0.004000
  0.312500  0.000000  0.312500      0.004000
  0.333333  0.000000  0.333333      0.004000
  0.354167  0.000000  0.354167      0.004000
  0.375000  0.000000  0.375000      0.004000
  0.395833  0.000000  0.395833      0.004000
  0.416667  0.000000  0.416667      0.004000
  0.437500  0.000000  0.437500      0.004000
  0.458333  0.000000  0.458333      0.004000
  0.479167  0.000000  0.479167      0.004000
  0.500000  0.000000  0.500000      0.004000
  0.500000  0.000000  0.500000      0.004000
  0.500000  0.010417  0.510417      0.004000
  0.500000  0.020833  0.520833      0.004000
  0.500000  0.031250  0.531250      0.004000
  0.500000  0.041667  0.541667      0.004000
  0.500000  0.052083  0.552083      0.004000
  0.500000  0.062500  0.562500      0.004000
  0.500000  0.072917  0.572917      0.004000
  0.500000  0.083333  0.583333      0.004000
  0.500000  0.093750  0.593750      0.004000
  0.500000  0.104167  0.604167      0.004000
  0.500000  0.114583  0.614583      0.004000
  0.500000  0.125000  0.625000      0.004000
  0.500000  0.135417  0.635417      0.004000
  0.500000  0.145833  0.645833      0.004000
  0.500000  0.156250  0.656250      0.004000
  0.500000  0.166667  0.666667      0.004000
  0.500000  0.177083  0.677083      0.004000
  0.500000  0.187500  0.687500      0.004000
  0.500000  0.197917  0.697917      0.004000
  0.500000  0.208333  0.708333      0.004000
  0.500000  0.218750  0.718750      0.004000
  0.500000  0.229167  0.729167      0.004000
  0.500000  0.239583  0.739583      0.004000
  0.500000  0.250000  0.750000      0.004000
  0.500000  0.250000  0.750000      0.004000
  0.494792  0.255208  0.750000      0.004000
  0.489583  0.260417  0.750000      0.004000
  0.484375  0.265625  0.750000      0.004000
  0.479167  0.270833  0.750000      0.004000
  0.473958  0.276042  0.750000      0.004000
  0.468750  0.281250  0.750000      0.004000
  0.463542  0.286458  0.750000      0.004000
  0.458333  0.291667  0.750000      0.004000
  0.453125  0.296875  0.750000      0.004000
  0.447917  0.302083  0.750000      0.004000
  0.442708  0.307292  0.750000      0.004000
  0.437500  0.312500  0.750000      0.004000
  0.432292  0.317708  0.750000      0.004000
  0.427083  0.322917  0.750000      0.004000
  0.421875  0.328125  0.750000      0.004000
  0.416667  0.333333  0.750000      0.004000
  0.411458  0.338542  0.750000      0.004000
  0.406250  0.343750  0.750000      0.004000
  0.401042  0.348958  0.750000      0.004000
  0.395833  0.354167  0.750000      0.004000
  0.390625  0.359375  0.750000      0.004000
  0.385417  0.364583  0.750000      0.004000
  0.380208  0.369792  0.750000      0.004000
  0.375000  0.375000  0.750000      0.004000
  0.375000  0.375000  0.750000      0.004000
  0.359375  0.359375  0.718750      0.004000
  0.343750  0.343750  0.687500      0.004000
  0.328125  0.328125  0.656250      0.004000
  0.312500  0.312500  0.625000      0.004000
  0.296875  0.296875  0.593750      0.004000
  0.281250  0.281250  0.562500      0.004000
  0.265625  0.265625  0.531250      0.004000
  0.250000  0.250000  0.500000      0.004000
  0.234375  0.234375  0.468750      0.004000
  0.218750  0.218750  0.437500      0.004000
  0.203125  0.203125  0.406250      0.004000
  0.187500  0.187500  0.375000      0.004000
  0.171875  0.171875  0.343750      0.004000
  0.156250  0.156250  0.312500      0.004000
  0.140625  0.140625  0.281250      0.004000
  0.125000  0.125000  0.250000      0.004000
  0.109375  0.109375  0.218750      0.004000
  0.093750  0.093750  0.187500      0.004000
  0.078125  0.078125  0.156250      0.004000
  0.062500  0.062500  0.125000      0.004000
  0.046875  0.046875  0.093750      0.004000
  0.031250  0.031250  0.062500      0.004000
  0.015625  0.015625  0.031250      0.004000
  0.000000  0.000000  0.000000      0.004000
  0.000000  0.000000  0.000000      0.004000
  0.020833  0.020833  0.020833      0.004000
  0.041667  0.041667  0.041667      0.004000
  0.062500  0.062500  0.062500      0.004000
  0.083333  0.083333  0.083333      0.004000
  0.104167  0.104167  0.104167      0.004000
  0.125000  0.125000  0.125000      0.004000
  0.145833  0.145833  0.145833      0.004000
  0.166667  0.166667  0.166667      0.004000
  0.187500  0.187500  0.187500      0.004000
  0.208333  0.208333  0.208333      0.004000
  0.229167  0.229167  0.229167      0.004000
  0.250000  0.250000  0.250000      0.004000
  0.270833  0.270833  0.270833      0.004000
  0.291667  0.291667  0.291667      0.004000
  0.312500  0.312500  0.312500      0.004000
  0.333333  0.333333  0.333333      0.004000
  0.354167  0.354167  0.354167      0.004000
  0.375000  0.375000  0.375000      0.004000
  0.395833  0.395833  0.395833      0.004000
  0.416667  0.416667  0.416667      0.004000
  0.437500  0.437500  0.437500      0.004000
  0.458333  0.458333  0.458333      0.004000
  0.479167  0.479167  0.479167      0.004000
  0.500000  0.500000  0.500000      0.004000
  0.500000  0.500000  0.500000      0.004000
  0.505208  0.489583  0.505208      0.004000
  0.510417  0.479167  0.510417      0.004000
  0.515625  0.468750  0.515625      0.004000
  0.520833  0.458333  0.520833      0.004000
  0.526042  0.447917  0.526042      0.004000
  0.531250  0.437500  0.531250      0.004000
  0.536458  0.427083  0.536458      0.004000
  0.541667  0.416667  0.541667      0.004000
  0.546875  0.406250  0.546875      0.004000
  0.552083  0.395833  0.552083      0.004000
  0.557292  0.385417  0.557292      0.004000
  0.562500  0.375000  0.562500      0.004000
  0.567708  0.364583  0.567708      0.004000
  0.572917  0.354167  0.572917      0.004000
  0.578125  0.343750  0.578125      0.004000
  0.583333  0.333333  0.583333      0.004000
  0.588542  0.322917  0.588542      0.004000
  0.593750  0.312500  0.593750      0.004000
  0.598958  0.302083  0.598958      0.004000
  0.604167  0.291667  0.604167      0.004000
  0.609375  0.281250  0.609375      0.004000
  0.614583  0.270833  0.614583      0.004000
  0.619792  0.260417  0.619792      0.004000
  0.625000  0.250000  0.625000      0.004000
  0.625000  0.250000  0.625000      0.004000
  0.619792  0.250000  0.630208      0.004000
  0.614583  0.250000  0.635417      0.004000
  0.609375  0.250000  0.640625      0.004000
  0.604167  0.250000  0.645833      0.004000
  0.598958  0.250000  0.651042      0.004000
  0.593750  0.250000  0.656250      0.004000
  0.588542  0.250000  0.661458      0.004000
  0.583333  0.250000  0.666667      0.004000
  0.578125  0.250000  0.671875      0.004000
  0.572917  0.250000  0.677083      0.004000
  0.567708  0.250000  0.682292      0.004000
  0.562500  0.250000  0.687500      0.004000
  0.557292  0.250000  0.692708      0.004000
  0.552083  0.250000  0.697917      0.004000
  0.546875  0.250000  0.703125      0.004000
  0.541667  0.250000  0.708333      0.004000
  0.536458  0.250000  0.713542      0.004000
  0.531250  0.250000  0.718750      0.004000
  0.526042  0.250000  0.723958      0.004000
  0.520833  0.250000  0.729167      0.004000
  0.515625  0.250000  0.734375      0.004000
  0.510417  0.250000  0.739583      0.004000
  0.505208  0.250000  0.744792      0.004000
  0.500000  0.250000  0.750000      0.004000
  0.500000  0.250000  0.750000      0.004000
  0.500000  0.260417  0.739583      0.004000
  0.500000  0.270833  0.729167      0.004000
  0.500000  0.281250  0.718750      0.004000
  0.500000  0.291667  0.708333      0.004000
  0.500000  0.302083  0.697917      0.004000
  0.500000  0.312500  0.687500      0.004000
  0.500000  0.322917  0.677083      0.004000
  0.500000  0.333333  0.666667      0.004000
  0.500000  0.343750  0.656250      0.004000
  0.500000  0.354167  0.645833      0.004000
  0.500000  0.364583  0.635417      0.004000
  0.500000  0.375000  0.625000      0.004000
  0.500000  0.385417  0.614583      0.004000
  0.500000  0.395833  0.604167      0.004000
  0.500000  0.406250  0.593750      0.004000
  0.500000  0.416667  0.583333      0.004000
  0.500000  0.427083  0.572917      0.004000
  0.500000  0.437500  0.562500      0.004000
  0.500000  0.447917  0.552083      0.004000
  0.500000  0.458333  0.541667      0.004000
  0.500000  0.468750  0.531250      0.004000
  0.500000  0.479167  0.520833      0.004000
  0.500000  0.489583  0.510417      0.004000
  0.500000  0.500000  0.500000      0.004000
  0.500000  0.500000  0.500000      0.004000
  0.494792  0.494792  0.510417      0.004000
  0.489583  0.489583  0.520833      0.004000
  0.484375  0.484375  0.531250      0.004000
  0.479167  0.479167  0.541667      0.004000
  0.473958  0.473958  0.552083      0.004000
  0.468750  0.468750  0.562500      0.004000
  0.463542  0.463542  0.572917      0.004000
  0.458333  0.458333  0.583333      0.004000
  0.453125  0.453125  0.593750      0.004000
  0.447917  0.447917  0.604167      0.004000
  0.442708  0.442708  0.614583      0.004000
  0.437500  0.437500  0.625000      0.004000
  0.432292  0.432292  0.635417      0.004000
  0.427083  0.427083  0.645833      0.004000
  0.421875  0.421875  0.656250      0.004000
  0.416667  0.416667  0.666667      0.004000
  0.411458  0.411458  0.677083      0.004000
  0.406250  0.406250  0.687500      0.004000
  0.401042  0.401042  0.697917      0.004000
  0.395833  0.395833  0.708333      0.004000
  0.390625  0.390625  0.718750      0.004000
  0.385417  0.385417  0.729167      0.004000
  0.380208  0.380208  0.739583      0.004000
  0.375000  0.375000  0.750000      0.004000
  0.625000  0.250000  0.625000      0.004000
  0.619792  0.239583  0.619792      0.004000
  0.614583  0.229167  0.614583      0.004000
  0.609375  0.218750  0.609375      0.004000
  0.604167  0.208333  0.604167      0.004000
  0.598958  0.197917  0.598958      0.004000
  0.593750  0.187500  0.593750      0.004000
  0.588542  0.177083  0.588542      0.004000
  0.583333  0.166667  0.583333      0.004000
  0.578125  0.156250  0.578125      0.004000
  0.572917  0.145833  0.572917      0.004000
  0.567708  0.135417  0.567708      0.004000
  0.562500  0.125000  0.562500      0.004000
  0.557292  0.114583  0.557292      0.004000
  0.552083  0.104167  0.552083      0.004000
  0.546875  0.093750  0.546875      0.004000
  0.541667  0.083333  0.541667      0.004000
  0.536458  0.072917  0.536458      0.004000
  0.531250  0.062500  0.531250      0.004000
  0.526042  0.052083  0.526042      0.004000
  0.520833  0.041667  0.520833      0.004000
  0.515625  0.031250  0.515625      0.004000
  0.510417  0.020833  0.510417      0.004000
  0.505208  0.010417  0.505208      0.004000
  0.500000  0.000000  0.500000      0.004000

 Following cartesian coordinates:
            Coordinates               Weight
  0.000000  0.000000  0.000000      0.004000
  0.000000  0.007619  0.000000      0.004000
  0.000000  0.015239  0.000000      0.004000
  0.000000  0.022858  0.000000      0.004000
  0.000000  0.030477  0.000000      0.004000
  0.000000  0.038096  0.000000      0.004000
  0.000000  0.045716  0.000000      0.004000
  0.000000  0.053335  0.000000      0.004000
  0.000000  0.060954  0.000000      0.004000
  0.000000  0.068574  0.000000      0.004000
  0.000000  0.076193  0.000000      0.004000
  0.000000  0.083812  0.000000      0.004000
  0.000000  0.091431  0.000000      0.004000
  0.000000  0.099051  0.000000      0.004000
  0.000000  0.106670  0.000000      0.004000
  0.000000  0.114289  0.000000      0.004000
  0.000000  0.121908  0.000000      0.004000
  0.000000  0.129528  0.000000      0.004000
  0.000000  0.137147  0.000000      0.004000
  0.000000  0.144766  0.000000      0.004000
  0.000000  0.152386  0.000000      0.004000
  0.000000  0.160005  0.000000      0.004000
  0.000000  0.167624  0.000000      0.004000
  0.000000  0.175243  0.000000      0.004000
  0.000000  0.182863  0.000000      0.004000
  0.000000  0.182863  0.000000      0.004000
  0.003810  0.182863  0.000000      0.004000
  0.007619  0.182863  0.000000      0.004000
  0.011429  0.182863  0.000000      0.004000
  0.015239  0.182863  0.000000      0.004000
  0.019048  0.182863  0.000000      0.004000
  0.022858  0.182863  0.000000      0.004000
  0.026667  0.182863  0.000000      0.004000
  0.030477  0.182863 -0.000000      0.004000
  0.034287  0.182863  0.000000      0.004000
  0.038096  0.182863  0.000000      0.004000
  0.041906  0.182863 -0.000000      0.004000
  0.045716  0.182863  0.000000      0.004000
  0.049525  0.182863  0.000000      0.004000
  0.053335  0.182863  0.000000      0.004000
  0.057145  0.182863  0.000000      0.004000
  0.060954  0.182863  0.000000      0.004000
  0.064764  0.182863  0.000000      0.004000
  0.068574  0.182863  0.000000      0.004000
  0.072383  0.182863  0.000000      0.004000
  0.076193  0.182863  0.000000      0.004000
  0.080002  0.182863  0.000000      0.004000
  0.083812  0.182863  0.000000      0.004000
  0.087622  0.182863  0.000000      0.004000
  0.091431  0.182863  0.000000      0.004000
  0.091431  0.182863  0.000000      0.004000
  0.093336  0.180958  0.000000      0.004000
  0.095241  0.179053  0.000000      0.004000
  0.097146  0.177148  0.000000      0.004000
  0.099051  0.175243  0.000000      0.004000
  0.100955  0.173339  0.000000      0.004000
  0.102860  0.171434  0.000000      0.004000
  0.104765  0.169529  0.000000      0.004000
  0.106670  0.167624  0.000000      0.004000
  0.108575  0.165719  0.000000      0.004000
  0.110480  0.163814  0.000000      0.004000
  0.112384  0.161910  0.000000      0.004000
  0.114289  0.160005  0.000000      0.004000
  0.116194  0.158100  0.000000      0.004000
  0.118099  0.156195  0.000000      0.004000
  0.120004  0.154290  0.000000      0.004000
  0.121908  0.152386  0.000000      0.004000
  0.123813  0.150481  0.000000      0.004000
  0.125718  0.148576  0.000000      0.004000
  0.127623  0.146671  0.000000      0.004000
  0.129528  0.144766  0.000000      0.004000
  0.131433  0.142861  0.000000      0.004000
  0.133337  0.140957  0.000000      0.004000
  0.135242  0.139052  0.000000      0.004000
  0.137147  0.137147  0.000000      0.004000
  0.137147  0.137147  0.000000      0.004000
  0.131433  0.131433  0.000000      0.004000
  0.125718  0.125718  0.000000      0.004000
  0.120004  0.120004  0.000000      0.004000
  0.114289  0.114289  0.000000      0.004000
  0.108575  0.108575  0.000000      0.004000
  0.102860  0.102860  0.000000      0.004000
  0.097146  0.097146  0.000000      0.004000
  0.091431  0.091431  0.000000      0.004000
  0.085717  0.085717  0.000000      0.004000
  0.080002  0.080002  0.000000      0.004000
  0.074288  0.074288  0.000000      0.004000
  0.068574  0.068574  0.000000      0.004000
  0.062859  0.062859  0.000000      0.004000
  0.057145  0.057145  0.000000      0.004000
  0.051430  0.051430  0.000000      0.004000
  0.045716  0.045716  0.000000      0.004000
  0.040001  0.040001  0.000000      0.004000
  0.034287  0.034287  0.000000      0.004000
  0.028572  0.028572  0.000000      0.004000
  0.022858  0.022858  0.000000      0.004000
  0.017143  0.017143  0.000000      0.004000
  0.011429  0.011429  0.000000      0.004000
  0.005714  0.005714  0.000000      0.004000
  0.000000  0.000000  0.000000      0.004000
  0.000000  0.000000  0.000000      0.004000
  0.003810  0.003810  0.003810      0.004000
  0.007619  0.007619  0.007619      0.004000
  0.011429  0.011429  0.011429      0.004000
  0.015239  0.015239  0.015239      0.004000
  0.019048  0.019048  0.019048      0.004000
  0.022858  0.022858  0.022858      0.004000
  0.026667  0.026667  0.026667      0.004000
  0.030477  0.030477  0.030477      0.004000
  0.034287  0.034287  0.034287      0.004000
  0.038096  0.038096  0.038096      0.004000
  0.041906  0.041906  0.041906      0.004000
  0.045716  0.045716  0.045716      0.004000
  0.049525  0.049525  0.049525      0.004000
  0.053335  0.053335  0.053335      0.004000
  0.057145  0.057145  0.057145      0.004000
  0.060954  0.060954  0.060954      0.004000
  0.064764  0.064764  0.064764      0.004000
  0.068574  0.068574  0.068574      0.004000
  0.072383  0.072383  0.072383      0.004000
  0.076193  0.076193  0.076193      0.004000
  0.080002  0.080002  0.080002      0.004000
  0.083812  0.083812  0.083812      0.004000
  0.087622  0.087622  0.087622      0.004000
  0.091431  0.091431  0.091431      0.004000
  0.091431  0.091431  0.091431      0.004000
  0.089527  0.095241  0.089527      0.004000
  0.087622  0.099051  0.087622      0.004000
  0.085717  0.102860  0.085717      0.004000
  0.083812  0.106670  0.083812      0.004000
  0.081907  0.110480  0.081907      0.004000
  0.080002  0.114289  0.080002      0.004000
  0.078098  0.118099  0.078098      0.004000
  0.076193  0.121908  0.076193      0.004000
  0.074288  0.125718  0.074288      0.004000
  0.072383  0.129528  0.072383      0.004000
  0.070478  0.133337  0.070478      0.004000
  0.068574  0.137147  0.068574      0.004000
  0.066669  0.140957  0.066669      0.004000
  0.064764  0.144766  0.064764      0.004000
  0.062859  0.148576  0.062859      0.004000
  0.060954  0.152386  0.060954      0.004000
  0.059049  0.156195  0.059049      0.004000
  0.057145  0.160005  0.057145      0.004000
  0.055240  0.163814  0.055240      0.004000
  0.053335  0.167624  0.053335      0.004000
  0.051430  0.171434  0.051430      0.004000
  0.049525  0.175243  0.049525      0.004000
  0.047620  0.179053  0.047620      0.004000
  0.045716  0.182863  0.045716      0.004000
  0.045716  0.182863  0.045716      0.004000
  0.047620  0.182863  0.043811      0.004000
  0.049525  0.182863  0.041906      0.004000
  0.051430  0.182863  0.040001      0.004000
  0.053335  0.182863  0.038096      0.004000
  0.055240  0.182863  0.036192      0.004000
  0.057145  0.182863  0.034287      0.004000
  0.059049  0.182863  0.032382      0.004000
  0.060954  0.182863  0.030477      0.004000
  0.062859  0.182863  0.028572      0.004000
  0.064764  0.182863  0.026667      0.004000
  0.066669  0.182863  0.024763      0.004000
  0.068574  0.182863  0.022858      0.004000
  0.070478  0.182863  0.020953      0.004000
  0.072383  0.182863  0.019048      0.004000
  0.074288  0.182863  0.017143      0.004000
  0.076193  0.182863  0.015239      0.004000
  0.078098  0.182863  0.013334      0.004000
  0.080002  0.182863  0.011429      0.004000
  0.081907  0.182863  0.009524      0.004000
  0.083812  0.182863  0.007619      0.004000
  0.085717  0.182863  0.005714      0.004000
  0.087622  0.182863  0.003810      0.004000
  0.089527  0.182863  0.001905      0.004000
  0.091431  0.182863  0.000000      0.004000
  0.091431  0.182863  0.000000      0.004000
  0.091431  0.179053  0.003810      0.004000
  0.091431  0.175243  0.007619      0.004000
  0.091431  0.171434  0.011429      0.004000
  0.091431  0.167624  0.015239      0.004000
  0.091431  0.163814  0.019048      0.004000
  0.091431  0.160005  0.022858      0.004000
  0.091431  0.156195  0.026667      0.004000
  0.091431  0.152386  0.030477      0.004000
  0.091431  0.148576  0.034287      0.004000
  0.091431  0.144766  0.038096      0.004000
  0.091431  0.140957  0.041906      0.004000
  0.091431  0.137147  0.045716      0.004000
  0.091431  0.133337  0.049525      0.004000
  0.091431  0.129528  0.053335      0.004000
  0.091431  0.125718  0.057145      0.004000
  0.091431  0.121908  0.060954      0.004000
  0.091431  0.118099  0.064764      0.004000
  0.091431  0.114289  0.068574      0.004000
  0.091431  0.110480  0.072383      0.004000
  0.091431  0.106670  0.076193      0.004000
  0.091431  0.102860  0.080002      0.004000
  0.091431  0.099051  0.083812      0.004000
  0.091431  0.095241  0.087622      0.004000
  0.091431  0.091431  0.091431      0.004000
  0.091431  0.091431  0.091431      0.004000
  0.093336  0.093336  0.087622      0.004000
  0.095241  0.095241  0.083812      0.004000
  0.097146  0.097146  0.080002      0.004000
  0.099051  0.099051  0.076193      0.004000
  0.100955  0.100955  0.072383      0.004000
  0.102860  0.102860  0.068574      0.004000
  0.104765  0.104765  0.064764      0.004000
  0.106670  0.106670  0.060954      0.004000
  0.108575  0.108575  0.057145      0.004000
  0.110480  0.110480  0.053335      0.004000
  0.112384  0.112384  0.049525      0.004000
  0.114289  0.114289  0.045716      0.004000
  0.116194  0.116194  0.041906      0.004000
  0.118099  0.118099  0.038096      0.004000
  0.120004  0.120004  0.034287      0.004000
  0.121908  0.121908  0.030477      0.004000
  0.123813  0.123813  0.026667      0.004000
  0.125718  0.125718  0.022858      0.004000
  0.127623  0.127623  0.019048      0.004000
  0.129528  0.129528  0.015239      0.004000
  0.131433  0.131433  0.011429      0.004000
  0.133337  0.133337  0.007619      0.004000
  0.135242  0.135242  0.003810      0.004000
  0.137147  0.137147  0.000000      0.004000
  0.045716  0.182863  0.045716      0.004000
  0.043811  0.182863  0.043811      0.004000
  0.041906  0.182863  0.041906      0.004000
  0.040001  0.182863  0.040001      0.004000
  0.038096  0.182863  0.038096      0.004000
  0.036192  0.182863  0.036192      0.004000
  0.034287  0.182863  0.034287      0.004000
  0.032382  0.182863  0.032382      0.004000
  0.030477  0.182863  0.030477      0.004000
  0.028572  0.182863  0.028572      0.004000
  0.026667  0.182863  0.026667      0.004000
  0.024763  0.182863  0.024763      0.004000
  0.022858  0.182863  0.022858      0.004000
  0.020953  0.182863  0.020953      0.004000
  0.019048  0.182863  0.019048      0.004000
  0.017143  0.182863  0.017143      0.004000
  0.015239  0.182863  0.015239      0.004000
  0.013334  0.182863  0.013334      0.004000
  0.011429  0.182863  0.011429      0.004000
  0.009524  0.182863  0.009524      0.004000
  0.007619  0.182863  0.007619      0.004000
  0.005714  0.182863  0.005714      0.004000
  0.003810  0.182863  0.003810      0.004000
  0.001905  0.182863  0.001905      0.004000
  0.000000  0.182863  0.000000      0.004000
 


--------------------------------------------------------------------------------------------------------




 Dimension of arrays:
   k-points           NKPTS =    250   k-points in BZ     NKDIM =    250   number of bands    NBANDS=      8
   number of dos      NEDOS =    301   number of ions     NIONS =      2
   non local maximal  LDIM  =      4   non local SUM 2l+1 LMDIM =      8
   total plane-waves  NPLWV =  27000
   max r-space proj   IRMAX =      1   max aug-charges    IRDMAX=  22277
   dimension x,y,z NGX =    30 NGY =   30 NGZ =   30
   dimension x,y,z NGXF=    60 NGYF=   60 NGZF=   60
   support grid    NGXF=    60 NGYF=   60 NGZF=   60
   ions per type =               2
   NGX,Y,Z   is equivalent  to a cutoff of  12.90, 12.90, 12.90 a.u.
   NGXF,Y,Z  is equivalent  to a cutoff of  25.80, 25.80, 25.80 a.u.

 SYSTEM =  Si FCC                                  
 POSCAR =  Si [FCC,FCC,cF8]                        

 Startparameter for this run:
   NWRITE =      2    write-flag & timer
   PREC   = accura    normal or accurate (medium, high low for compatibility)
   ISTART =      0    job   : 0-new  1-cont  2-samecut
   ICHARG =     11    charge: 1-file 2-atom 10-const
   ISPIN  =      1    spin polarized calculation?
   LNONCOLLINEAR =      F non collinear calculations
   LSORBIT =      F    spin-orbit coupling
   INIWAV =      1    electr: 0-lowe 1-rand  2-diag
   LASPH  =      F    aspherical Exc in radial PAW
 Electronic Relaxation 1
   ENCUT  =  520.0 eV  38.22 Ry    6.18 a.u.   7.19  7.19  7.19*2*pi/ulx,y,z
   ENINI  =  520.0     initial cutoff
   ENAUG  =  322.1 eV  augmentation charge cutoff
   NELM   =     60;   NELMIN=  2; NELMDL=  0     # of ELM steps 
   EDIFF  = 0.1E-09   stopping-criterion for ELM
   LREAL  =      F    real-space projection
   NLSPLINE    = F    spline interpolate recip. space projectors
   LCOMPAT=      F    compatible to vasp.4.4
   GGA_COMPAT  = T    GGA compatible to vasp.4.4-vasp.4.6
   LMAXPAW     = -100 max onsite density
   LMAXMIX     =    2 max onsite mixed and CHGCAR
   VOSKOWN=      0    Vosko Wilk Nusair interpolation
   ROPT   =    0.00000
 Ionic relaxation
   EDIFFG = -.1E-04   stopping-criterion for IOM
   NSW    =      0    number of steps for IOM
   NBLOCK =      1;   KBLOCK =      1    inner block; outer block 
   IBRION =     -1    ionic relax: 0-MD 1-quasi-New 2-CG
   NFREE  =      0    steps in history (QN), initial steepest desc. (CG)
   ISIF   =      0    stress and relaxation
   IWAVPR =     10    prediction:  0-non 1-charg 2-wave 3-comb
   ISYM   =      2    0-nonsym 1-usesym 2-fastsym
   LCORR  =      T    Harris-Foulkes like correction to forces

   POTIM  = 0.5000    time-step for ionic-motion
   TEIN   =    0.0    initial temperature
   TEBEG  =    0.0;   TEEND  =   0.0 temperature during run
   SMASS  =  -3.00    Nose mass-parameter (am)
   estimated Nose-frequenzy (Omega)   =  0.10E-29 period in steps = 0.13E+47 mass=  -0.342E-27a.u.
   SCALEE = 1.0000    scale energy and forces
   NPACO  =    256;   APACO  = 10.0  distance and # of slots for P.C.
   PSTRESS=    0.0 pullay stress

  Mass of Ions in am
   POMASS =  28.09
  Ionic Valenz
   ZVAL   =   4.00
  Atomic Wigner-Seitz radii
   RWIGS  =  -1.00
  virtual crystal weights 
   VCA    =   1.00
   NELECT =       8.0000    total number of electrons
   NUPDOWN=      -1.0000    fix difference up-down

 DOS related values:
   EMIN   =  10.00;   EMAX   =-10.00  energy-range for DOS
   EFERMI =   0.00;   METHOD = LEGACY      
   ISMEAR =     0;   SIGMA  =   0.03  broadening in eV -4-tet -1-fermi 0-gaus

 Electronic relaxation 2 (details)
   IALGO  =     38    algorithm
   LDIAG  =      T    sub-space diagonalisation (order eigenvalues)
   LSUBROT=      F    optimize rotation matrix (better conditioning)
   TURBO    =      0    0=normal 1=particle mesh
   IRESTART =      0    0=no restart 2=restart with 2 vectors
   NREBOOT  =      0    no. of reboots
   NMIN     =      0    reboot dimension
   EREF     =   0.00    reference energy to select bands
   IMIX   =      4    mixing-type and parameters
     AMIX     =   0.40;   BMIX     =  1.00
     AMIX_MAG =   1.60;   BMIX_MAG =  1.00
     AMIN     =   0.10
     WC   =   100.;   INIMIX=   1;  MIXPRE=   1;  MAXMIX= -45

 Intra band minimization:
   WEIMIN = 0.0000     energy-eigenvalue tresh-hold
   EBREAK =  0.31E-11  absolut break condition
   DEPER  =   0.30     relativ break condition  

   TIME   =   0.40     timestep for ELM

  volume/ion in A,a.u.               =      20.44       137.95
  Fermi-wavevector in a.u.,A,eV,Ry     =   0.950422  1.796038 12.290177  0.903302
  Thomas-Fermi vector in A             =   2.078798
 
 Write flags
   LWAVE        =      F    write WAVECAR
   LDOWNSAMPLE  =      F    k-point downsampling of WAVECAR
   LCHARG       =      T    write CHGCAR
   LVTOT        =      F    write LOCPOT, total local potential
   LVHAR        =      F    write LOCPOT, Hartree potential only
   LELF         =      F    write electronic localiz. function (ELF)
   LORBIT       =     11    0 simple, 1 ext, 2 COOP (PROOUT), +10 PAW based schemes


 Dipole corrections
   LMONO  =      F    monopole corrections only (constant potential shift)
   LDIPOL =      F    correct potential (dipole corrections)
   IDIPOL =      0    1-x, 2-y, 3-z, 4-all directions 
   EPSILON=  1.0000000 bulk dielectric constant

 Exchange correlation treatment:
   GGA     =    PE    GGA type
   LEXCH   =     8    internal setting for exchange type
   LIBXC   =     F    Libxc                    
   VOSKOWN =     0    Vosko Wilk Nusair interpolation
   LHFCALC =     F    Hartree Fock is set to
   LHFONE  =     F    Hartree Fock one center treatment
   AEXX    =    0.0000 exact exchange contribution

 Linear response parameters
   LEPSILON=     F    determine dielectric tensor
   LRPA    =     F    only Hartree local field effects (RPA)
   LNABLA  =     F    use nabla operator in PAW spheres
   LVEL    =     F    velocity operator in full k-point grid
   CSHIFT  =0.1000    complex shift for real part using Kramers Kronig
   OMEGAMAX=  -1.0    maximum frequency
   DEG_THRESHOLD= 0.2000000E-02 threshold for treating states as degnerate
   RTIME   =   -0.100 relaxation time in fs
  (WPLASMAI=    0.000 imaginary part of plasma frequency in eV, 0.658/RTIME)
   DFIELD  = 0.0000000 0.0000000 0.0000000 field for delta impulse in time
 
  Optional k-point grid parameters
   LKPOINTS_OPT  =     F    use optional k-point grid
   KPOINTS_OPT_MODE=     1    mode for optional k-point grid
 
 Orbital magnetization related:
   ORBITALMAG=     F  switch on orbital magnetization
   LCHIMAG   =     F  perturbation theory with respect to B field
   DQ        =  0.001000  dq finite difference perturbation B field
   LLRAUG    =     F  two centre corrections for induced B field
   LBONE     =     F  B-component reconstruction in AE one-centre
   LVGVCALC  =     T  calculate vGv susceptibility
   LVGVAPPL  =     F  apply vGv susceptibility instead of pGv for G=0

 Random number generation:
   RANDOM_GENERATOR = DEFAULT
   PCG_SEED         = not used


--------------------------------------------------------------------------------------------------------


 Static calculation
 charge density and potential remain constant during run
 non-spin polarized calculation
 Variant of blocked Davidson
 Davidson routine will perform the subspace rotation
 perform sub-space diagonalisation
    after iterative eigenvector-optimisation
 no mixing
 using additional bands            4
 reciprocal scheme for non local part
 use partial core corrections
 calculate Harris-corrections to forces 
   (improved forces if not selfconsistent)
 use gradient corrections 
 WARNING: stress and forces are not correct
  (second derivative of E(xc) not defined)
 use of overlap-Matrix (Vanderbilt PP)
 Gauss-broadening in eV      SIGMA  =   0.03


--------------------------------------------------------------------------------------------------------


  energy-cutoff  :      520.00
  volume of cell :       40.89
      direct lattice vectors                 reciprocal lattice vectors
     0.000000000  2.734291991  2.734291991    -0.182862694  0.182862694  0.182862694
     2.734291991  0.000000000  2.734291991     0.182862694 -0.182862694  0.182862694
     2.734291991  2.734291991  0.000000000     0.182862694  0.182862694 -0.182862694

  length of vectors
     3.866872817  3.866872817  3.866872817     0.316727477  0.316727477  0.316727477


 
 k-points in units of 2pi/SCALE and weight: FCC (face-centered cubic) G-X-W-K-G-L-U-
   0.00000000  0.00000000  0.00000000       0.004
   0.00000000  0.00761928  0.00000000       0.004
   0.00000000  0.01523856  0.00000000       0.004
   0.00000000  0.02285784  0.00000000       0.004
   0.00000000  0.03047712  0.00000000       0.004
   0.00000000  0.03809639  0.00000000       0.004
   0.00000000  0.04571567  0.00000000       0.004
   0.00000000  0.05333495  0.00000000       0.004
   0.00000000  0.06095423  0.00000000       0.004
   0.00000000  0.06857351  0.00000000       0.004
   0.00000000  0.07619279  0.00000000       0.004
   0.00000000  0.08381207  0.00000000       0.004
   0.00000000  0.09143135  0.00000000       0.004
   0.00000000  0.09905063  0.00000000       0.004
   0.00000000  0.10666990  0.00000000       0.004
   0.00000000  0.11428918  0.00000000       0.004
   0.00000000  0.12190846  0.00000000       0.004
   0.00000000  0.12952774  0.00000000       0.004
   0.00000000  0.13714702  0.00000000       0.004
   0.00000000  0.14476630  0.00000000       0.004
   0.00000000  0.15238558  0.00000000       0.004
   0.00000000  0.16000486  0.00000000       0.004
   0.00000000  0.16762414  0.00000000       0.004
   0.00000000  0.17524342  0.00000000       0.004
   0.00000000  0.18286269  0.00000000       0.004
   0.00000000  0.18286269  0.00000000       0.004
   0.00380964  0.18286269  0.00000000       0.004
   0.00761928  0.18286269  0.00000000       0.004
   0.01142892  0.18286269  0.00000000       0.004
   0.01523856  0.18286269  0.00000000       0.004
   0.01904820  0.18286269  0.00000000       0.004
   0.02285784  0.18286269  0.00000000       0.004
   0.02666748  0.18286269  0.00000000       0.004
   0.03047712  0.18286269 -0.00000000       0.004
   0.03428676  0.18286269  0.00000000       0.004
   0.03809639  0.18286269  0.00000000       0.004
   0.04190603  0.18286269 -0.00000000       0.004
   0.04571567  0.18286269  0.00000000       0.004
   0.04952531  0.18286269  0.00000000       0.004
   0.05333495  0.18286269  0.00000000       0.004
   0.05714459  0.18286269  0.00000000       0.004
   0.06095423  0.18286269  0.00000000       0.004
   0.06476387  0.18286269  0.00000000       0.004
   0.06857351  0.18286269  0.00000000       0.004
   0.07238315  0.18286269  0.00000000       0.004
   0.07619279  0.18286269  0.00000000       0.004
   0.08000243  0.18286269  0.00000000       0.004
   0.08381207  0.18286269  0.00000000       0.004
   0.08762171  0.18286269  0.00000000       0.004
   0.09143135  0.18286269  0.00000000       0.004
   0.09143135  0.18286269  0.00000000       0.004
   0.09333617  0.18095787  0.00000000       0.004
   0.09524099  0.17905305  0.00000000       0.004
   0.09714581  0.17714823  0.00000000       0.004
   0.09905063  0.17524342  0.00000000       0.004
   0.10095545  0.17333860  0.00000000       0.004
   0.10286027  0.17143378  0.00000000       0.004
   0.10476509  0.16952896  0.00000000       0.004
   0.10666990  0.16762414  0.00000000       0.004
   0.10857472  0.16571932  0.00000000       0.004
   0.11047954  0.16381450  0.00000000       0.004
   0.11238436  0.16190968  0.00000000       0.004
   0.11428918  0.16000486  0.00000000       0.004
   0.11619400  0.15810004  0.00000000       0.004
   0.11809882  0.15619522  0.00000000       0.004
   0.12000364  0.15429040  0.00000000       0.004
   0.12190846  0.15238558  0.00000000       0.004
   0.12381328  0.15048076  0.00000000       0.004
   0.12571810  0.14857594  0.00000000       0.004
   0.12762292  0.14667112  0.00000000       0.004
   0.12952774  0.14476630  0.00000000       0.004
   0.13143256  0.14286148  0.00000000       0.004
   0.13333738  0.14095666  0.00000000       0.004
   0.13524220  0.13905184  0.00000000       0.004
   0.13714702  0.13714702  0.00000000       0.004
   0.13714702  0.13714702  0.00000000       0.004
   0.13143256  0.13143256  0.00000000       0.004
   0.12571810  0.12571810  0.00000000       0.004
   0.12000364  0.12000364  0.00000000       0.004
   0.11428918  0.11428918  0.00000000       0.004
   0.10857472  0.10857472  0.00000000       0.004
   0.10286027  0.10286027  0.00000000       0.004
   0.09714581  0.09714581  0.00000000       0.004
   0.09143135  0.09143135  0.00000000       0.004
   0.08571689  0.08571689  0.00000000       0.004
   0.08000243  0.08000243  0.00000000       0.004
   0.07428797  0.07428797  0.00000000       0.004
   0.06857351  0.06857351  0.00000000       0.004
   0.06285905  0.06285905  0.00000000       0.004
   0.05714459  0.05714459  0.00000000       0.004
   0.05143013  0.05143013  0.00000000       0.004
   0.04571567  0.04571567  0.00000000       0.004
   0.04000121  0.04000121  0.00000000       0.004
   0.03428676  0.03428676  0.00000000       0.004
   0.02857230  0.02857230  0.00000000       0.004
   0.02285784  0.02285784  0.00000000       0.004
   0.01714338  0.01714338  0.00000000       0.004
   0.01142892  0.01142892  0.00000000       0.004
   0.00571446  0.00571446  0.00000000       0.004
   0.00000000  0.00000000  0.00000000       0.004
   0.00000000  0.00000000  0.00000000       0.004
   0.00380964  0.00380964  0.00380964       0.004
   0.00761928  0.00761928  0.00761928       0.004
   0.01142892  0.01142892  0.01142892       0.004
   0.01523856  0.01523856  0.01523856       0.004
   0.01904820  0.01904820  0.01904820       0.004
   0.02285784  0.02285784  0.02285784       0.004
   0.02666748  0.02666748  0.02666748       0.004
   0.03047712  0.03047712  0.03047712       0.004
   0.03428676  0.03428676  0.03428676       0.004
   0.03809639  0.03809639  0.03809639       0.004
   0.04190603  0.04190603  0.04190603       0.004
   0.04571567  0.04571567  0.04571567       0.004
   0.04952531  0.04952531  0.04952531       0.004
   0.05333495  0.05333495  0.05333495       0.004
   0.05714459  0.05714459  0.05714459       0.004
   0.06095423  0.06095423  0.06095423       0.004
   0.06476387  0.06476387  0.06476387       0.004
   0.06857351  0.06857351  0.06857351       0.004
   0.07238315  0.07238315  0.07238315       0.004
   0.07619279  0.07619279  0.07619279       0.004
   0.08000243  0.08000243  0.08000243       0.004
   0.08381207  0.08381207  0.08381207       0.004
   0.08762171  0.08762171  0.08762171       0.004
   0.09143135  0.09143135  0.09143135       0.004
   0.09143135  0.09143135  0.09143135       0.004
   0.08952653  0.09524099  0.08952653       0.004
   0.08762171  0.09905063  0.08762171       0.004
   0.08571689  0.10286027  0.08571689       0.004
   0.08381207  0.10666990  0.08381207       0.004
   0.08190725  0.11047954  0.08190725       0.004
   0.08000243  0.11428918  0.08000243       0.004
   0.07809761  0.11809882  0.07809761       0.004
   0.07619279  0.12190846  0.07619279       0.004
   0.07428797  0.12571810  0.07428797       0.004
   0.07238315  0.12952774  0.07238315       0.004
   0.07047833  0.13333738  0.07047833       0.004
   0.06857351  0.13714702  0.06857351       0.004
   0.06666869  0.14095666  0.06666869       0.004
   0.06476387  0.14476630  0.06476387       0.004
   0.06285905  0.14857594  0.06285905       0.004
   0.06095423  0.15238558  0.06095423       0.004
   0.05904941  0.15619522  0.05904941       0.004
   0.05714459  0.16000486  0.05714459       0.004
   0.05523977  0.16381450  0.05523977       0.004
   0.05333495  0.16762414  0.05333495       0.004
   0.05143013  0.17143378  0.05143013       0.004
   0.04952531  0.17524342  0.04952531       0.004
   0.04762049  0.17905305  0.04762049       0.004
   0.04571567  0.18286269  0.04571567       0.004
   0.04571567  0.18286269  0.04571567       0.004
   0.04762049  0.18286269  0.04381085       0.004
   0.04952531  0.18286269  0.04190603       0.004
   0.05143013  0.18286269  0.04000121       0.004
   0.05333495  0.18286269  0.03809639       0.004
   0.05523977  0.18286269  0.03619157       0.004
   0.05714459  0.18286269  0.03428676       0.004
   0.05904941  0.18286269  0.03238194       0.004
   0.06095423  0.18286269  0.03047712       0.004
   0.06285905  0.18286269  0.02857230       0.004
   0.06476387  0.18286269  0.02666748       0.004
   0.06666869  0.18286269  0.02476266       0.004
   0.06857351  0.18286269  0.02285784       0.004
   0.07047833  0.18286269  0.02095302       0.004
   0.07238315  0.18286269  0.01904820       0.004
   0.07428797  0.18286269  0.01714338       0.004
   0.07619279  0.18286269  0.01523856       0.004
   0.07809761  0.18286269  0.01333374       0.004
   0.08000243  0.18286269  0.01142892       0.004
   0.08190725  0.18286269  0.00952410       0.004
   0.08381207  0.18286269  0.00761928       0.004
   0.08571689  0.18286269  0.00571446       0.004
   0.08762171  0.18286269  0.00380964       0.004
   0.08952653  0.18286269  0.00190482       0.004
   0.09143135  0.18286269  0.00000000       0.004
   0.09143135  0.18286269  0.00000000       0.004
   0.09143135  0.17905305  0.00380964       0.004
   0.09143135  0.17524342  0.00761928       0.004
   0.09143135  0.17143378  0.01142892       0.004
   0.09143135  0.16762414  0.01523856       0.004
   0.09143135  0.16381450  0.01904820       0.004
   0.09143135  0.16000486  0.02285784       0.004
   0.09143135  0.15619522  0.02666748       0.004
   0.09143135  0.15238558  0.03047712       0.004
   0.09143135  0.14857594  0.03428676       0.004
   0.09143135  0.14476630  0.03809639       0.004
   0.09143135  0.14095666  0.04190603       0.004
   0.09143135  0.13714702  0.04571567       0.004
   0.09143135  0.13333738  0.04952531       0.004
   0.09143135  0.12952774  0.05333495       0.004
   0.09143135  0.12571810  0.05714459       0.004
   0.09143135  0.12190846  0.06095423       0.004
   0.09143135  0.11809882  0.06476387       0.004
   0.09143135  0.11428918  0.06857351       0.004
   0.09143135  0.11047954  0.07238315       0.004
   0.09143135  0.10666990  0.07619279       0.004
   0.09143135  0.10286027  0.08000243       0.004
   0.09143135  0.09905063  0.08381207       0.004
   0.09143135  0.09524099  0.08762171       0.004
   0.09143135  0.09143135  0.09143135       0.004
   0.09143135  0.09143135  0.09143135       0.004
   0.09333617  0.09333617  0.08762171       0.004
   0.09524099  0.09524099  0.08381207       0.004
   0.09714581  0.09714581  0.08000243       0.004
   0.09905063  0.09905063  0.07619279       0.004
   0.10095545  0.10095545  0.07238315       0.004
   0.10286027  0.10286027  0.06857351       0.004
   0.10476509  0.10476509  0.06476387       0.004
   0.10666990  0.10666990  0.06095423       0.004
   0.10857472  0.10857472  0.05714459       0.004
   0.11047954  0.11047954  0.05333495       0.004
   0.11238436  0.11238436  0.04952531       0.004
   0.11428918  0.11428918  0.04571567       0.004
   0.11619400  0.11619400  0.04190603       0.004
   0.11809882  0.11809882  0.03809639       0.004
   0.12000364  0.12000364  0.03428676       0.004
   0.12190846  0.12190846  0.03047712       0.004
   0.12381328  0.12381328  0.02666748       0.004
   0.12571810  0.12571810  0.02285784       0.004
   0.12762292  0.12762292  0.01904820       0.004
   0.12952774  0.12952774  0.01523856       0.004
   0.13143256  0.13143256  0.01142892       0.004
   0.13333738  0.13333738  0.00761928       0.004
   0.13524220  0.13524220  0.00380964       0.004
   0.13714702  0.13714702  0.00000000       0.004
   0.04571567  0.18286269  0.04571567       0.004
   0.04381085  0.18286269  0.04381085       0.004
   0.04190603  0.18286269  0.04190603       0.004
   0.04000121  0.18286269  0.04000121       0.004
   0.03809639  0.18286269  0.03809639       0.004
   0.03619157  0.18286269  0.03619157       0.004
   0.03428676  0.18286269  0.03428676       0.004
   0.03238194  0.18286269  0.03238194       0.004
   0.03047712  0.18286269  0.03047712       0.004
   0.02857230  0.18286269  0.02857230       0.004
   0.02666748  0.18286269  0.02666748       0.004
   0.02476266  0.18286269  0.02476266       0.004
   0.02285784  0.18286269  0.02285784       0.004
   0.02095302  0.18286269  0.02095302       0.004
   0.01904820  0.18286269  0.01904820       0.004
   0.01714338  0.18286269  0.01714338       0.004
   0.01523856  0.18286269  0.01523856       0.004
   0.01333374  0.18286269  0.01333374       0.004
   0.01142892  0.18286269  0.01142892       0.004
   0.00952410  0.18286269  0.00952410       0.004
   0.00761928  0.18286269  0.00761928       0.004
   0.00571446  0.18286269  0.00571446       0.004
   0.00380964  0.18286269  0.00380964       0.004
   0.00190482  0.18286269  0.00190482       0.004
   0.00000000  0.18286269  0.00000000       0.004
 
 k-points in reciprocal lattice and weights: FCC (face-centered cubic) G-X-W-K-G-L-U-
   0.00000000  0.00000000  0.00000000       0.004
   0.02083333  0.00000000  0.02083333       0.004
   0.04166667  0.00000000  0.04166667       0.004
   0.06250000  0.00000000  0.06250000       0.004
   0.08333333  0.00000000  0.08333333       0.004
   0.10416667  0.00000000  0.10416667       0.004
   0.12500000  0.00000000  0.12500000       0.004
   0.14583333  0.00000000  0.14583333       0.004
   0.16666667  0.00000000  0.16666667       0.004
   0.18750000  0.00000000  0.18750000       0.004
   0.20833333  0.00000000  0.20833333       0.004
   0.22916667  0.00000000  0.22916667       0.004
   0.25000000  0.00000000  0.25000000       0.004
   0.27083333  0.00000000  0.27083333       0.004
   0.29166667  0.00000000  0.29166667       0.004
   0.31250000  0.00000000  0.31250000       0.004
   0.33333333  0.00000000  0.33333333       0.004
   0.35416667  0.00000000  0.35416667       0.004
   0.37500000  0.00000000  0.37500000       0.004
   0.39583333  0.00000000  0.39583333       0.004
   0.41666667  0.00000000  0.41666667       0.004
   0.43750000  0.00000000  0.43750000       0.004
   0.45833333  0.00000000  0.45833333       0.004
   0.47916667  0.00000000  0.47916667       0.004
   0.50000000  0.00000000  0.50000000       0.004
   0.50000000  0.00000000  0.50000000       0.004
   0.50000000  0.01041667  0.51041667       0.004
   0.50000000  0.02083333  0.52083333       0.004
   0.50000000  0.03125000  0.53125000       0.004
   0.50000000  0.04166667  0.54166667       0.004
   0.50000000  0.05208333  0.55208333       0.004
   0.50000000  0.06250000  0.56250000       0.004
   0.50000000  0.07291667  0.57291667       0.004
   0.50000000  0.08333333  0.58333333       0.004
   0.50000000  0.09375000  0.59375000       0.004
   0.50000000  0.10416667  0.60416667       0.004
   0.50000000  0.11458333  0.61458333       0.004
   0.50000000  0.12500000  0.62500000       0.004
   0.50000000  0.13541667  0.63541667       0.004
   0.50000000  0.14583333  0.64583333       0.004
   0.50000000  0.15625000  0.65625000       0.004
   0.50000000  0.16666667  0.66666667       0.004
   0.50000000  0.17708333  0.67708333       0.004
   0.50000000  0.18750000  0.68750000       0.004
   0.50000000  0.19791667  0.69791667       0.004
   0.50000000  0.20833333  0.70833333       0.004
   0.50000000  0.21875000  0.71875000       0.004
   0.50000000  0.22916667  0.72916667       0.004
   0.50000000  0.23958333  0.73958333       0.004
   0.50000000  0.25000000  0.75000000       0.004
   0.50000000  0.25000000  0.75000000       0.004
   0.49479167  0.25520833  0.75000000       0.004
   0.48958333  0.26041667  0.75000000       0.004
   0.48437500  0.26562500  0.75000000       0.004
   0.47916667  0.27083333  0.75000000       0.004
   0.47395833  0.27604167  0.75000000       0.004
   0.46875000  0.28125000  0.75000000       0.004
   0.46354167  0.28645833  0.75000000       0.004
   0.45833333  0.29166667  0.75000000       0.004
   0.45312500  0.29687500  0.75000000       0.004
   0.44791667  0.30208333  0.75000000       0.004
   0.44270833  0.30729167  0.75000000       0.004
   0.43750000  0.31250000  0.75000000       0.004
   0.43229167  0.31770833  0.75000000       0.004
   0.42708333  0.32291667  0.75000000       0.004
   0.42187500  0.32812500  0.75000000       0.004
   0.41666667  0.33333333  0.75000000       0.004
   0.41145833  0.33854167  0.75000000       0.004
   0.40625000  0.34375000  0.75000000       0.004
   0.40104167  0.34895833  0.75000000       0.004
   0.39583333  0.35416667  0.75000000       0.004
   0.39062500  0.35937500  0.75000000       0.004
   0.38541667  0.36458333  0.75000000       0.004
   0.38020833  0.36979167  0.75000000       0.004
   0.37500000  0.37500000  0.75000000       0.004
   0.37500000  0.37500000  0.75000000       0.004
   0.35937500  0.35937500  0.71875000       0.004
   0.34375000  0.34375000  0.68750000       0.004
   0.32812500  0.32812500  0.65625000       0.004
   0.31250000  0.31250000  0.62500000       0.004
   0.29687500  0.29687500  0.59375000       0.004
   0.28125000  0.28125000  0.56250000       0.004
   0.26562500  0.26562500  0.53125000       0.004
   0.25000000  0.25000000  0.50000000       0.004
   0.23437500  0.23437500  0.46875000       0.004
   0.21875000  0.21875000  0.43750000       0.004
   0.20312500  0.20312500  0.40625000       0.004
   0.18750000  0.18750000  0.37500000       0.004
   0.17187500  0.17187500  0.34375000       0.004
   0.15625000  0.15625000  0.31250000       0.004
   0.14062500  0.14062500  0.28125000       0.004
   0.12500000  0.12500000  0.25000000       0.004
   0.10937500  0.10937500  0.21875000       0.004
   0.09375000  0.09375000  0.18750000       0.004
   0.07812500  0.07812500  0.15625000       0.004
   0.06250000  0.06250000  0.12500000       0.004
   0.04687500  0.04687500  0.09375000       0.004
   0.03125000  0.03125000  0.06250000       0.004
   0.01562500  0.01562500  0.03125000       0.004
   0.00000000  0.00000000  0.00000000       0.004
   0.00000000  0.00000000  0.00000000       0.004
   0.02083333  0.02083333  0.02083333       0.004
   0.04166667  0.04166667  0.04166667       0.004
   0.06250000  0.06250000  0.06250000       0.004
   0.08333333  0.08333333  0.08333333       0.004
   0.10416667  0.10416667  0.10416667       0.004
   0.12500000  0.12500000  0.12500000       0.004
   0.14583333  0.14583333  0.14583333       0.004
   0.16666667  0.16666667  0.16666667       0.004
   0.18750000  0.18750000  0.18750000       0.004
   0.20833333  0.20833333  0.20833333       0.004
   0.22916667  0.22916667  0.22916667       0.004
   0.25000000  0.25000000  0.25000000       0.004
   0.27083333  0.27083333  0.27083333       0.004
   0.29166667  0.29166667  0.29166667       0.004
   0.31250000  0.31250000  0.31250000       0.004
   0.33333333  0.33333333  0.33333333       0.004
   0.35416667  0.35416667  0.35416667       0.004
   0.37500000  0.37500000  0.37500000       0.004
   0.39583333  0.39583333  0.39583333       0.004
   0.41666667  0.41666667  0.41666667       0.004
   0.43750000  0.43750000  0.43750000       0.004
   0.45833333  0.45833333  0.45833333       0.004
   0.47916667  0.47916667  0.47916667       0.004
   0.50000000  0.50000000  0.50000000       0.004
   0.50000000  0.50000000  0.50000000       0.004
   0.50520833  0.48958333  0.50520833       0.004
   0.51041667  0.47916667  0.51041667       0.004
   0.51562500  0.46875000  0.51562500       0.004
   0.52083333  0.45833333  0.52083333       0.004
   0.52604167  0.44791667  0.52604167       0.004
   0.53125000  0.43750000  0.53125000       0.004
   0.53645833  0.42708333  0.53645833       0.004
   0.54166667  0.41666667  0.54166667       0.004
   0.54687500  0.40625000  0.54687500       0.004
   0.55208333  0.39583333  0.55208333       0.004
   0.55729167  0.38541667  0.55729167       0.004
   0.56250000  0.37500000  0.56250000       0.004
   0.56770833  0.36458333  0.56770833       0.004
   0.57291667  0.35416667  0.57291667       0.004
   0.57812500  0.34375000  0.57812500       0.004
   0.58333333  0.33333333  0.58333333       0.004
   0.58854167  0.32291667  0.58854167       0.004
   0.59375000  0.31250000  0.59375000       0.004
   0.59895833  0.30208333  0.59895833       0.004
   0.60416667  0.29166667  0.60416667       0.004
   0.60937500  0.28125000  0.60937500       0.004
   0.61458333  0.27083333  0.61458333       0.004
   0.61979167  0.26041667  0.61979167       0.004
   0.62500000  0.25000000  0.62500000       0.004
   0.62500000  0.25000000  0.62500000       0.004
   0.61979167  0.25000000  0.63020833       0.004
   0.61458333  0.25000000  0.63541667       0.004
   0.60937500  0.25000000  0.64062500       0.004
   0.60416667  0.25000000  0.64583333       0.004
   0.59895833  0.25000000  0.65104167       0.004
   0.59375000  0.25000000  0.65625000       0.004
   0.58854167  0.25000000  0.66145833       0.004
   0.58333333  0.25000000  0.66666667       0.004
   0.57812500  0.25000000  0.67187500       0.004
   0.57291667  0.25000000  0.67708333       0.004
   0.56770833  0.25000000  0.68229167       0.004
   0.56250000  0.25000000  0.68750000       0.004
   0.55729167  0.25000000  0.69270833       0.004
   0.55208333  0.25000000  0.69791667       0.004
   0.54687500  0.25000000  0.70312500       0.004
   0.54166667  0.25000000  0.70833333       0.004
   0.53645833  0.25000000  0.71354167       0.004
   0.53125000  0.25000000  0.71875000       0.004
   0.52604167  0.25000000  0.72395833       0.004
   0.52083333  0.25000000  0.72916667       0.004
   0.51562500  0.25000000  0.73437500       0.004
   0.51041667  0.25000000  0.73958333       0.004
   0.50520833  0.25000000  0.74479167       0.004
   0.50000000  0.25000000  0.75000000       0.004
   0.50000000  0.25000000  0.75000000       0.004
   0.50000000  0.26041667  0.73958333       0.004
   0.50000000  0.27083333  0.72916667       0.004
   0.50000000  0.28125000  0.71875000       0.004
   0.50000000  0.29166667  0.70833333       0.004
   0.50000000  0.30208333  0.69791667       0.004
   0.50000000  0.31250000  0.68750000       0.004
   0.50000000  0.32291667  0.67708333       0.004
   0.50000000  0.33333333  0.66666667       0.004
   0.50000000  0.34375000  0.65625000       0.004
   0.50000000  0.35416667  0.64583333       0.004
   0.50000000  0.36458333  0.63541667       0.004
   0.50000000  0.37500000  0.62500000       0.004
   0.50000000  0.38541667  0.61458333       0.004
   0.50000000  0.39583333  0.60416667       0.004
   0.50000000  0.40625000  0.59375000       0.004
   0.50000000  0.41666667  0.58333333       0.004
   0.50000000  0.42708333  0.57291667       0.004
   0.50000000  0.43750000  0.56250000       0.004
   0.50000000  0.44791667  0.55208333       0.004
   0.50000000  0.45833333  0.54166667       0.004
   0.50000000  0.46875000  0.53125000       0.004
   0.50000000  0.47916667  0.52083333       0.004
   0.50000000  0.48958333  0.51041667       0.004
   0.50000000  0.50000000  0.50000000       0.004
   0.50000000  0.50000000  0.50000000       0.004
   0.49479167  0.49479167  0.51041667       0.004
   0.48958333  0.48958333  0.52083333       0.004
   0.48437500  0.48437500  0.53125000       0.004
   0.47916667  0.47916667  0.54166667       0.004
   0.47395833  0.47395833  0.55208333       0.004
   0.46875000  0.46875000  0.56250000       0.004
   0.46354167  0.46354167  0.57291667       0.004
   0.45833333  0.45833333  0.58333333       0.004
   0.45312500  0.45312500  0.59375000       0.004
   0.44791667  0.44791667  0.60416667       0.004
   0.44270833  0.44270833  0.61458333       0.004
   0.43750000  0.43750000  0.62500000       0.004
   0.43229167  0.43229167  0.63541667       0.004
   0.42708333  0.42708333  0.64583333       0.004
   0.42187500  0.42187500  0.65625000       0.004
   0.41666667  0.41666667  0.66666667       0.004
   0.41145833  0.41145833  0.67708333       0.004
   0.40625000  0.40625000  0.68750000       0.004
   0.40104167  0.40104167  0.69791667       0.004
   0.39583333  0.39583333  0.70833333       0.004
   0.39062500  0.39062500  0.71875000       0.004
   0.38541667  0.38541667  0.72916667       0.004
   0.38020833  0.38020833  0.73958333       0.004
   0.37500000  0.37500000  0.75000000       0.004
   0.62500000  0.25000000  0.62500000       0.004
   0.61979167  0.23958333  0.61979167       0.004
   0.61458333  0.22916667  0.61458333       0.004
   0.60937500  0.21875000  0.60937500       0.004
   0.60416667  0.20833333  0.60416667       0.004
   0.59895833  0.19791667  0.59895833       0.004
   0.59375000  0.18750000  0.59375000       0.004
   0.58854167  0.17708333  0.58854167       0.004
   0.58333333  0.16666667  0.58333333       0.004
   0.57812500  0.15625000  0.57812500       0.004
   0.57291667  0.14583333  0.57291667       0.004
   0.56770833  0.13541667  0.56770833       0.004
   0.56250000  0.12500000  0.56250000       0.004
   0.55729167  0.11458333  0.55729167       0.004
   0.55208333  0.10416667  0.55208333       0.004
   0.54687500  0.09375000  0.54687500       0.004
   0.54166667  0.08333333  0.54166667       0.004
   0.53645833  0.07291667  0.53645833       0.004
   0.53125000  0.06250000  0.53125000       0.004
   0.52604167  0.05208333  0.52604167       0.004
   0.52083333  0.04166667  0.52083333       0.004
   0.51562500  0.03125000  0.51562500       0.004
   0.51041667  0.02083333  0.51041667       0.004
   0.50520833  0.01041667  0.50520833       0.004
   0.50000000  0.00000000  0.50000000       0.004
 
 position of ions in fractional coordinates (direct lattice) 
   0.00000000  0.00000000  0.00000000
   0.25000000  0.25000000  0.25000000
 
 position of ions in cartesian coordinates  (Angst):
   0.00000000  0.00000000  0.00000000
   1.36714600  1.36714600  1.36714600
 


--------------------------------------------------------------------------------------------------------


 k-point   1 :   0.0000 0.0000 0.0000  plane waves:    1067
 k-point   2 :   0.0208 0.0000 0.0208  plane waves:    1079
 k-point   3 :   0.0417 0.0000 0.0417  plane waves:    1087
 k-point   4 :   0.0625 0.0000 0.0625  plane waves:    1087
 k-point   5 :   0.0833 0.0000 0.0833  plane waves:    1099
 k-point   6 :   0.1042 0.0000 0.1042  plane waves:    1106
 k-point   7 :   0.1250 0.0000 0.1250  plane waves:    1102
 k-point   8 :   0.1458 0.0000 0.1458  plane waves:    1106
 k-point   9 :   0.1667 0.0000 0.1667  plane waves:    1094
 k-point  10 :   0.1875 0.0000 0.1875  plane waves:    1094
 k-point  11 :   0.2083 0.0000 0.2083  plane waves:    1106
 k-point  12 :   0.2292 0.0000 0.2292  plane waves:    1094
 k-point  13 :   0.2500 0.0000 0.2500  plane waves:    1094
 k-point  14 :   0.2708 0.0000 0.2708  plane waves:    1094
 k-point  15 :   0.2917 0.0000 0.2917  plane waves:    1094
 k-point  16 :   0.3125 0.0000 0.3125  plane waves:    1094
 k-point  17 :   0.3333 0.0000 0.3333  plane waves:    1082
 k-point  18 :   0.3542 0.0000 0.3542  plane waves:    1094
 k-point  19 :   0.3750 0.0000 0.3750  plane waves:    1094
 k-point  20 :   0.3958 0.0000 0.3958  plane waves:    1094
 k-point  21 :   0.4167 0.0000 0.4167  plane waves:    1102
 k-point  22 :   0.4375 0.0000 0.4375  plane waves:    1102
 k-point  23 :   0.4583 0.0000 0.4583  plane waves:    1102
 k-point  24 :   0.4792 0.0000 0.4792  plane waves:    1106
 k-point  25 :   0.5000 0.0000 0.5000  plane waves:    1106
 k-point  26 :   0.5000 0.0000 0.5000  plane waves:    1106
 k-point  27 :   0.5000 0.0104 0.5104  plane waves:    1106
 k-point  28 :   0.5000 0.0208 0.5208  plane waves:    1106
 k-point  29 :   0.5000 0.0312 0.5312  plane waves:    1106
 k-point  30 :   0.5000 0.0417 0.5417  plane waves:    1110
 k-point  31 :   0.5000 0.0521 0.5521  plane waves:    1110
 k-point  32 :   0.5000 0.0625 0.5625  plane waves:    1108
 k-point  33 :   0.5000 0.0729 0.5729  plane waves:    1108
 k-point  34 :   0.5000 0.0833 0.5833  plane waves:    1110
 k-point  35 :   0.5000 0.0938 0.5938  plane waves:    1110
 k-point  36 :   0.5000 0.1042 0.6042  plane waves:    1106
 k-point  37 :   0.5000 0.1146 0.6146  plane waves:    1106
 k-point  38 :   0.5000 0.1250 0.6250  plane waves:    1106
 k-point  39 :   0.5000 0.1354 0.6354  plane waves:    1108
 k-point  40 :   0.5000 0.1458 0.6458  plane waves:    1102
 k-point  41 :   0.5000 0.1562 0.6562  plane waves:    1098
 k-point  42 :   0.5000 0.1667 0.6667  plane waves:    1098
 k-point  43 :   0.5000 0.1771 0.6771  plane waves:    1098
 k-point  44 :   0.5000 0.1875 0.6875  plane waves:    1100
 k-point  45 :   0.5000 0.1979 0.6979  plane waves:    1104
 k-point  46 :   0.5000 0.2083 0.7083  plane waves:    1104
 k-point  47 :   0.5000 0.2188 0.7188  plane waves:    1104
 k-point  48 :   0.5000 0.2292 0.7292  plane waves:    1108
 k-point  49 :   0.5000 0.2396 0.7396  plane waves:    1112
 k-point  50 :   0.5000 0.2500 0.7500  plane waves:    1124
 k-point  51 :   0.5000 0.2500 0.7500  plane waves:    1124
 k-point  52 :   0.4948 0.2552 0.7500  plane waves:    1112
 k-point  53 :   0.4896 0.2604 0.7500  plane waves:    1112
 k-point  54 :   0.4844 0.2656 0.7500  plane waves:    1112
 k-point  55 :   0.4792 0.2708 0.7500  plane waves:    1112
 k-point  56 :   0.4740 0.2760 0.7500  plane waves:    1108
 k-point  57 :   0.4688 0.2812 0.7500  plane waves:    1108
 k-point  58 :   0.4635 0.2865 0.7500  plane waves:    1109
 k-point  59 :   0.4583 0.2917 0.7500  plane waves:    1104
 k-point  60 :   0.4531 0.2969 0.7500  plane waves:    1104
 k-point  61 :   0.4479 0.3021 0.7500  plane waves:    1104
 k-point  62 :   0.4427 0.3073 0.7500  plane waves:    1102
 k-point  63 :   0.4375 0.3125 0.7500  plane waves:    1102
 k-point  64 :   0.4323 0.3177 0.7500  plane waves:    1104
 k-point  65 :   0.4271 0.3229 0.7500  plane waves:    1104
 k-point  66 :   0.4219 0.3281 0.7500  plane waves:    1106
 k-point  67 :   0.4167 0.3333 0.7500  plane waves:    1108
 k-point  68 :   0.4115 0.3385 0.7500  plane waves:    1108
 k-point  69 :   0.4062 0.3438 0.7500  plane waves:    1112
 k-point  70 :   0.4010 0.3490 0.7500  plane waves:    1112
 k-point  71 :   0.3958 0.3542 0.7500  plane waves:    1116
 k-point  72 :   0.3906 0.3594 0.7500  plane waves:    1116
 k-point  73 :   0.3854 0.3646 0.7500  plane waves:    1115
 k-point  74 :   0.3802 0.3698 0.7500  plane waves:    1121
 k-point  75 :   0.3750 0.3750 0.7500  plane waves:    1121
 k-point  76 :   0.3750 0.3750 0.7500  plane waves:    1121
 k-point  77 :   0.3594 0.3594 0.7188  plane waves:    1115
 k-point  78 :   0.3438 0.3438 0.6875  plane waves:    1121
 k-point  79 :   0.3281 0.3281 0.6562  plane waves:    1113
 k-point  80 :   0.3125 0.3125 0.6250  plane waves:    1115
 k-point  81 :   0.2969 0.2969 0.5938  plane waves:    1113
 k-point  82 :   0.2812 0.2812 0.5625  plane waves:    1117
 k-point  83 :   0.2656 0.2656 0.5312  plane waves:    1113
 k-point  84 :   0.2500 0.2500 0.5000  plane waves:    1097
 k-point  85 :   0.2344 0.2344 0.4688  plane waves:    1101
 k-point  86 :   0.2188 0.2188 0.4375  plane waves:    1097
 k-point  87 :   0.2031 0.2031 0.4062  plane waves:    1093
 k-point  88 :   0.1875 0.1875 0.3750  plane waves:    1093
 k-point  89 :   0.1719 0.1719 0.3438  plane waves:    1103
 k-point  90 :   0.1562 0.1562 0.3125  plane waves:    1099
 k-point  91 :   0.1406 0.1406 0.2812  plane waves:    1099
 k-point  92 :   0.1250 0.1250 0.2500  plane waves:    1107
 k-point  93 :   0.1094 0.1094 0.2188  plane waves:    1103
 k-point  94 :   0.0938 0.0938 0.1875  plane waves:    1103
 k-point  95 :   0.0781 0.0781 0.1562  plane waves:    1097
 k-point  96 :   0.0625 0.0625 0.1250  plane waves:    1093
 k-point  97 :   0.0469 0.0469 0.0938  plane waves:    1095
 k-point  98 :   0.0312 0.0312 0.0625  plane waves:    1091
 k-point  99 :   0.0156 0.0156 0.0312  plane waves:    1081
 k-point 100 :   0.0000 0.0000 0.0000  plane waves:    1067
 k-point 101 :   0.0000 0.0000 0.0000  plane waves:    1067
 k-point 102 :   0.0208 0.0208 0.0208  plane waves:    1073
 k-point 103 :   0.0417 0.0417 0.0417  plane waves:    1091
 k-point 104 :   0.0625 0.0625 0.0625  plane waves:    1091
 k-point 105 :   0.0833 0.0833 0.0833  plane waves:    1097
 k-point 106 :   0.1042 0.1042 0.1042  plane waves:    1097
 k-point 107 :   0.1250 0.1250 0.1250  plane waves:    1100
 k-point 108 :   0.1458 0.1458 0.1458  plane waves:    1098
 k-point 109 :   0.1667 0.1667 0.1667  plane waves:    1092
 k-point 110 :   0.1875 0.1875 0.1875  plane waves:    1098
 k-point 111 :   0.2083 0.2083 0.2083  plane waves:    1098
 k-point 112 :   0.2292 0.2292 0.2292  plane waves:    1095
 k-point 113 :   0.2500 0.2500 0.2500  plane waves:    1095
 k-point 114 :   0.2708 0.2708 0.2708  plane waves:    1095
 k-point 115 :   0.2917 0.2917 0.2917  plane waves:    1095
 k-point 116 :   0.3125 0.3125 0.3125  plane waves:    1089
 k-point 117 :   0.3333 0.3333 0.3333  plane waves:    1089
 k-point 118 :   0.3542 0.3542 0.3542  plane waves:    1095
 k-point 119 :   0.3750 0.3750 0.3750  plane waves:    1101
 k-point 120 :   0.3958 0.3958 0.3958  plane waves:    1101
 k-point 121 :   0.4167 0.4167 0.4167  plane waves:    1107
 k-point 122 :   0.4375 0.4375 0.4375  plane waves:    1107
 k-point 123 :   0.4583 0.4583 0.4583  plane waves:    1101
 k-point 124 :   0.4792 0.4792 0.4792  plane waves:    1104
 k-point 125 :   0.5000 0.5000 0.5000  plane waves:    1104
 k-point 126 :   0.5000 0.5000 0.5000  plane waves:    1104
 k-point 127 :   0.5052 0.4896 0.5052  plane waves:    1104
 k-point 128 :   0.5104 0.4792 0.5104  plane waves:    1096
 k-point 129 :   0.5156 0.4688 0.5156  plane waves:    1094
 k-point 130 :   0.5208 0.4583 0.5208  plane waves:    1100
 k-point 131 :   0.5260 0.4479 0.5260  plane waves:    1104
 k-point 132 :   0.5312 0.4375 0.5312  plane waves:    1102
 k-point 133 :   0.5365 0.4271 0.5365  plane waves:    1102
 k-point 134 :   0.5417 0.4167 0.5417  plane waves:    1104
 k-point 135 :   0.5469 0.4062 0.5469  plane waves:    1104
 k-point 136 :   0.5521 0.3958 0.5521  plane waves:    1102
 k-point 137 :   0.5573 0.3854 0.5573  plane waves:    1098
 k-point 138 :   0.5625 0.3750 0.5625  plane waves:    1106
 k-point 139 :   0.5677 0.3646 0.5677  plane waves:    1102
 k-point 140 :   0.5729 0.3542 0.5729  plane waves:    1100
 k-point 141 :   0.5781 0.3438 0.5781  plane waves:    1102
 k-point 142 :   0.5833 0.3333 0.5833  plane waves:    1105
 k-point 143 :   0.5885 0.3229 0.5885  plane waves:    1105
 k-point 144 :   0.5938 0.3125 0.5938  plane waves:    1105
 k-point 145 :   0.5990 0.3021 0.5990  plane waves:    1106
 k-point 146 :   0.6042 0.2917 0.6042  plane waves:    1111
 k-point 147 :   0.6094 0.2812 0.6094  plane waves:    1113
 k-point 148 :   0.6146 0.2708 0.6146  plane waves:    1117
 k-point 149 :   0.6198 0.2604 0.6198  plane waves:    1117
 k-point 150 :   0.6250 0.2500 0.6250  plane waves:    1121
 k-point 151 :   0.6250 0.2500 0.6250  plane waves:    1121
 k-point 152 :   0.6198 0.2500 0.6302  plane waves:    1121
 k-point 153 :   0.6146 0.2500 0.6354  plane waves:    1115
 k-point 154 :   0.6094 0.2500 0.6406  plane waves:    1116
 k-point 155 :   0.6042 0.2500 0.6458  plane waves:    1116
 k-point 156 :   0.5990 0.2500 0.6510  plane waves:    1112
 k-point 157 :   0.5938 0.2500 0.6562  plane waves:    1112
 k-point 158 :   0.5885 0.2500 0.6615  plane waves:    1108
 k-point 159 :   0.5833 0.2500 0.6667  plane waves:    1108
 k-point 160 :   0.5781 0.2500 0.6719  plane waves:    1106
 k-point 161 :   0.5729 0.2500 0.6771  plane waves:    1104
 k-point 162 :   0.5677 0.2500 0.6823  plane waves:    1104
 k-point 163 :   0.5625 0.2500 0.6875  plane waves:    1102
 k-point 164 :   0.5573 0.2500 0.6927  plane waves:    1102
 k-point 165 :   0.5521 0.2500 0.6979  plane waves:    1104
 k-point 166 :   0.5469 0.2500 0.7031  plane waves:    1104
 k-point 167 :   0.5417 0.2500 0.7083  plane waves:    1104
 k-point 168 :   0.5365 0.2500 0.7135  plane waves:    1109
 k-point 169 :   0.5312 0.2500 0.7188  plane waves:    1108
 k-point 170 :   0.5260 0.2500 0.7240  plane waves:    1108
 k-point 171 :   0.5208 0.2500 0.7292  plane waves:    1112
 k-point 172 :   0.5156 0.2500 0.7344  plane waves:    1112
 k-point 173 :   0.5104 0.2500 0.7396  plane waves:    1112
 k-point 174 :   0.5052 0.2500 0.7448  plane waves:    1112
 k-point 175 :   0.5000 0.2500 0.7500  plane waves:    1124
 k-point 176 :   0.5000 0.2500 0.7500  plane waves:    1124
 k-point 177 :   0.5000 0.2604 0.7396  plane waves:    1108
 k-point 178 :   0.5000 0.2708 0.7292  plane waves:    1108
 k-point 179 :   0.5000 0.2812 0.7188  plane waves:    1108
 k-point 180 :   0.5000 0.2917 0.7083  plane waves:    1104
 k-point 181 :   0.5000 0.3021 0.6979  plane waves:    1104
 k-point 182 :   0.5000 0.3125 0.6875  plane waves:    1098
 k-point 183 :   0.5000 0.3229 0.6771  plane waves:    1102
 k-point 184 :   0.5000 0.3333 0.6667  plane waves:    1098
 k-point 185 :   0.5000 0.3438 0.6562  plane waves:    1102
 k-point 186 :   0.5000 0.3542 0.6458  plane waves:    1102
 k-point 187 :   0.5000 0.3646 0.6354  plane waves:    1106
 k-point 188 :   0.5000 0.3750 0.6250  plane waves:    1108
 k-point 189 :   0.5000 0.3854 0.6146  plane waves:    1108
 k-point 190 :   0.5000 0.3958 0.6042  plane waves:    1108
 k-point 191 :   0.5000 0.4062 0.5938  plane waves:    1108
 k-point 192 :   0.5000 0.4167 0.5833  plane waves:    1100
 k-point 193 :   0.5000 0.4271 0.5729  plane waves:    1104
 k-point 194 :   0.5000 0.4375 0.5625  plane waves:    1102
 k-point 195 :   0.5000 0.4479 0.5521  plane waves:    1100
 k-point 196 :   0.5000 0.4583 0.5417  plane waves:    1098
 k-point 197 :   0.5000 0.4688 0.5312  plane waves:    1096
 k-point 198 :   0.5000 0.4792 0.5208  plane waves:    1094
 k-point 199 :   0.5000 0.4896 0.5104  plane waves:    1104
 k-point 200 :   0.5000 0.5000 0.5000  plane waves:    1104
 k-point 201 :   0.5000 0.5000 0.5000  plane waves:    1104
 k-point 202 :   0.4948 0.4948 0.5104  plane waves:    1104
 k-point 203 :   0.4896 0.4896 0.5208  plane waves:    1096
 k-point 204 :   0.4844 0.4844 0.5312  plane waves:    1094
 k-point 205 :   0.4792 0.4792 0.5417  plane waves:    1100
 k-point 206 :   0.4740 0.4740 0.5521  plane waves:    1104
 k-point 207 :   0.4688 0.4688 0.5625  plane waves:    1102
 k-point 208 :   0.4635 0.4635 0.5729  plane waves:    1102
 k-point 209 :   0.4583 0.4583 0.5833  plane waves:    1104
 k-point 210 :   0.4531 0.4531 0.5938  plane waves:    1104
 k-point 211 :   0.4479 0.4479 0.6042  plane waves:    1102
 k-point 212 :   0.4427 0.4427 0.6146  plane waves:    1098
 k-point 213 :   0.4375 0.4375 0.6250  plane waves:    1106
 k-point 214 :   0.4323 0.4323 0.6354  plane waves:    1102
 k-point 215 :   0.4271 0.4271 0.6458  plane waves:    1100
 k-point 216 :   0.4219 0.4219 0.6562  plane waves:    1102
 k-point 217 :   0.4167 0.4167 0.6667  plane waves:    1105
 k-point 218 :   0.4115 0.4115 0.6771  plane waves:    1105
 k-point 219 :   0.4062 0.4062 0.6875  plane waves:    1105
[...]
      6       9.9707      0.00000
      7      10.3244      0.00000
      8      12.6625      0.00000

 k-point   214 :       0.4323    0.4323    0.6354
  band No.  band energies     occupation 
      1      -3.4526      2.00000
      2      -1.0986      2.00000
      3       2.2812      2.00000
      4       3.8265      2.00000
      5       7.5692      0.00000
      6      10.2339      0.00000
      7      10.5306      0.00000
      8      12.4075      0.00000

 k-point   215 :       0.4271    0.4271    0.6458
  band No.  band energies     occupation 
      1      -3.3798      2.00000
      2      -1.0942      2.00000
      3       2.1057      2.00000
      4       3.7604      2.00000
      5       7.4905      0.00000
      6      10.5042      0.00000
      7      10.7463      0.00000
      8      12.1557      0.00000

 k-point   216 :       0.4219    0.4219    0.6562
  band No.  band energies     occupation 
      1      -3.3024      2.00000
      2      -1.0968      2.00000
      3       1.9441      2.00000
      4       3.6958      2.00000
      5       7.4111      0.00000
      6      10.7743      0.00000
      7      10.9706      0.00000
      8      11.9137      0.00000

 k-point   217 :       0.4167    0.4167    0.6667
  band No.  band energies     occupation 
      1      -3.2206      2.00000
      2      -1.1085      2.00000
      3       1.7991      2.00000
      4       3.6330      2.00000
      5       7.3328      0.00000
      6      11.0238      0.00000
      7      11.2024      0.00000
      8      11.7018      0.00000

 k-point   218 :       0.4115    0.4115    0.6771
  band No.  band energies     occupation 
      1      -3.1348      2.00000
      2      -1.1308      2.00000
      3       1.6731      2.00000
      4       3.5726      2.00000
      5       7.2570      0.00000
      6      11.1505      0.00000
      7      11.4407      0.00000
      8      11.6217      0.00000

 k-point   219 :       0.4062    0.4062    0.6875
  band No.  band energies     occupation 
      1      -3.0457      2.00000
      2      -1.1653      2.00000
      3       1.5683      2.00000
      4       3.5149      2.00000
      5       7.1846      0.00000
      6      11.0303      0.00000
      7      11.6839      0.00000
      8      11.7971      0.00000

 k-point   220 :       0.4010    0.4010    0.6979
  band No.  band energies     occupation 
      1      -2.9541      2.00000
      2      -1.2125      2.00000
      3       1.4864      2.00000
      4       3.4603      2.00000
      5       7.1163      0.00000
      6      10.8222      0.00000
      7      11.9301      0.00000
      8      12.0689      0.00000

 k-point   221 :       0.3958    0.3958    0.7083
  band No.  band energies     occupation 
      1      -2.8612      2.00000
      2      -1.2718      2.00000
      3       1.4280      2.00000
      4       3.4089      2.00000
      5       7.0526      0.00000
      6      10.5994      0.00000
      7      12.1761      0.00000
      8      12.3636      0.00000

 k-point   222 :       0.3906    0.3906    0.7188
  band No.  band energies     occupation 
      1      -2.7692      2.00000
      2      -1.3408      2.00000
      3       1.3932      2.00000
      4       3.3611      2.00000
      5       6.9940      0.00000
      6      10.3757      0.00000
      7      12.4170      0.00000
      8      12.6670      0.00000

 k-point   223 :       0.3854    0.3854    0.7292
  band No.  band energies     occupation 
      1      -2.6814      2.00000
      2      -1.4152      2.00000
      3       1.3808      2.00000
      4       3.3172      2.00000
      5       6.9408      0.00000
      6      10.1551      0.00000
      7      12.6442      0.00000
      8      12.9741      0.00000

 k-point   224 :       0.3802    0.3802    0.7396
  band No.  band energies     occupation 
      1      -2.6034      2.00000
      2      -1.4876      2.00000
      3       1.3892      2.00000
      4       3.2771      2.00000
      5       6.8931      0.00000
      6       9.9393      0.00000
      7      12.8439      0.00000
      8      13.2796      0.00000

 k-point   225 :       0.3750    0.3750    0.7500
  band No.  band energies     occupation 
      1      -2.5443      2.00000
      2      -1.5471      2.00000
      3       1.4162      2.00000
      4       3.2412      2.00000
      5       6.8512      0.00000
      6       9.7293      0.00000
      7      12.9982      0.00000
      8      13.5344      0.00000

 k-point   226 :       0.6250    0.2500    0.6250
  band No.  band energies     occupation 
      1      -2.5443      2.00000
      2      -1.5471      2.00000
      3       1.4162      2.00000
      4       3.2412      2.00000
      5       6.8512      0.00000
      6       9.7293      0.00000
      7      12.9983      0.00000
      8      13.5350      0.00000

 k-point   227 :       0.6198    0.2396    0.6198
  band No.  band energies     occupation 
      1      -2.5000      2.00000
      2      -1.5945      2.00000
      3       1.4546      2.00000
      4       3.2081      2.00000
      5       6.8129      0.00000
      6       9.5236      0.00000
      7      13.1251      0.00000
      8      13.6678      0.00000

 k-point   228 :       0.6146    0.2292    0.6146
  band No.  band energies     occupation 
      1      -2.4588      2.00000
      2      -1.6399      2.00000
      3       1.4983      2.00000
      4       3.1761      2.00000
      5       6.7760      0.00000
      6       9.3202      0.00000
      7      13.2530      0.00000
      8      13.8076      0.00000

 k-point   229 :       0.6094    0.2188    0.6094
  band No.  band energies     occupation 
      1      -2.4206      2.00000
      2      -1.6833      2.00000
      3       1.5472      2.00000
      4       3.1454      2.00000
      5       6.7406      0.00000
      6       9.1195      0.00000
      7      13.3813      0.00000
      8      13.9394      0.00000

 k-point   230 :       0.6042    0.2083    0.6042
  band No.  band energies     occupation 
      1      -2.3855      2.00000
      2      -1.7247      2.00000
      3       1.6011      2.00000
      4       3.1161      2.00000
      5       6.7067      0.00000
      6       8.9218      0.00000
      7      13.5106      0.00000
      8      14.0861      0.00000

 k-point   231 :       0.5990    0.1979    0.5990
  band No.  band energies     occupation 
      1      -2.3534      2.00000
      2      -1.7640      2.00000
      3       1.6597      2.00000
      4       3.0880      2.00000
      5       6.6743      0.00000
      6       8.7273      0.00000
      7      13.6403      0.00000
      8      14.2123      0.00000

 k-point   232 :       0.5938    0.1875    0.5938
  band No.  band energies     occupation 
      1      -2.3241      2.00000
      2      -1.8014      2.00000
      3       1.7227      2.00000
      4       3.0613      2.00000
      5       6.6435      0.00000
      6       8.5363      0.00000
      7      13.7703      0.00000
      8      14.3153      0.00000

 k-point   233 :       0.5885    0.1771    0.5885
  band No.  band energies     occupation 
      1      -2.2975      2.00000
      2      -1.8368      2.00000
      3       1.7897      2.00000
      4       3.0359      2.00000
      5       6.6142      0.00000
      6       8.3491      0.00000
      7      13.9006      0.00000
      8      14.4262      0.00000

 k-point   234 :       0.5833    0.1667    0.5833
  band No.  band energies     occupation 
      1      -2.2736      2.00000
      2      -1.8702      2.00000
      3       1.8603      2.00000
      4       3.0118      2.00000
      5       6.5865      0.00000
      6       8.1662      0.00000
      7      14.0311      0.00000
      8      14.5140      0.00000

 k-point   235 :       0.5781    0.1562    0.5781
  band No.  band energies     occupation 
      1      -2.2522      2.00000
      2      -1.9016      2.00000
      3       1.9339      2.00000
      4       2.9892      2.00000
      5       6.5603      0.00000
      6       7.9879      0.00000
      7      14.1606      0.00000
      8      14.6200      0.00000

 k-point   236 :       0.5729    0.1458    0.5729
  band No.  band energies     occupation 
      1      -2.2330      2.00000
      2      -1.9309      2.00000
      3       2.0101      2.00000
      4       2.9679      2.00000
      5       6.5358      0.00000
      6       7.8146      0.00000
      7      14.2899      0.00000
      8      14.7087      0.00000

 k-point   237 :       0.5677    0.1354    0.5677
  band No.  band energies     occupation 
      1      -2.2161      2.00000
      2      -1.9582      2.00000
      3       2.0882      2.00000
      4       2.9481      2.00000
      5       6.5130      0.00000
      6       7.6469      0.00000
      7      14.4183      0.00000
      8      14.8037      0.00000

 k-point   238 :       0.5625    0.1250    0.5625
  band No.  band energies     occupation 
      1      -2.2011      2.00000
      2      -1.9835      2.00000
      3       2.1674      2.00000
      4       2.9297      2.00000
      5       6.4917      0.00000
      6       7.4852      0.00000
      7      14.5448      0.00000
      8      14.8950      0.00000

 k-point   239 :       0.5573    0.1146    0.5573
  band No.  band energies     occupation 
      1      -2.1880      2.00000
      2      -2.0068      2.00000
      3       2.2470      2.00000
      4       2.9127      2.00000
      5       6.4722      0.00000
      6       7.3304      0.00000
      7      14.6697      0.00000
      8      14.9854      0.00000

 k-point   240 :       0.5521    0.1042    0.5521
  band No.  band energies     occupation 
      1      -2.1765      2.00000
      2      -2.0281      2.00000
      3       2.3261      2.00000
      4       2.8972      2.00000
      5       6.4542      0.00000
      6       7.1832      0.00000
      7      14.7914      0.00000
      8      15.0716      0.00000

 k-point   241 :       0.5469    0.0938    0.5469
  band No.  band energies     occupation 
      1      -2.1666      2.00000
      2      -2.0474      2.00000
      3       2.4036      2.00000
      4       2.8831      2.00000
      5       6.4380      0.00000
      6       7.0443      0.00000
      7      14.9095      0.00000
      8      15.1512      0.00000

 k-point   242 :       0.5417    0.0833    0.5417
  band No.  band energies     occupation 
      1      -2.1582      2.00000
      2      -2.0646      2.00000
      3       2.4785      2.00000
      4       2.8704      2.00000
      5       6.4235      0.00000
      6       6.9150      0.00000
      7      15.0254      0.00000
      8      15.2425      0.00000

 k-point   243 :       0.5365    0.0729    0.5365
  band No.  band energies     occupation 
      1      -2.1510      2.00000
      2      -2.0798      2.00000
      3       2.5495      2.00000
      4       2.8593      2.00000
      5       6.4106      0.00000
      6       6.7961      0.00000
      7      15.1308      0.00000
      8      15.2979      0.00000

 k-point   244 :       0.5312    0.0625    0.5312
  band No.  band energies     occupation 
      1      -2.1450      2.00000
      2      -2.0930      2.00000
      3       2.6153      2.00000
      4       2.8496      2.00000
      5       6.3995      0.00000
      6       6.6892      0.00000
      7      15.2308      0.00000
      8      15.3618      0.00000

 k-point   245 :       0.5260    0.0521    0.5260
  band No.  band energies     occupation 
      1      -2.1401      2.00000
      2      -2.1041      2.00000
      3       2.6744      2.00000
      4       2.8414      2.00000
      5       6.3900      0.00000
      6       6.5953      0.00000
      7      15.3214      0.00000
      8      15.4179      0.00000

 k-point   246 :       0.5208    0.0417    0.5208
  band No.  band energies     occupation 
      1      -2.1362      2.00000
      2      -2.1132      2.00000
      3       2.7254      2.00000
      4       2.8347      2.00000
      5       6.3823      0.00000
      6       6.5160      0.00000
      7      15.4003      0.00000
      8      15.4658      0.00000

 k-point   247 :       0.5156    0.0312    0.5156
  band No.  band energies     occupation 
      1      -2.1332      2.00000
      2      -2.1203      2.00000
      3       2.7668      2.00000
      4       2.8294      2.00000
      5       6.3763      0.00000
      6       6.4526      0.00000
      7      15.4689      0.00000
      8      15.5052      0.00000

 k-point   248 :       0.5104    0.0208    0.5104
  band No.  band energies     occupation 
      1      -2.1311      2.00000
      2      -2.1254      2.00000
      3       2.7975      2.00000
      4       2.8257      2.00000
      5       6.3720      0.00000
      6       6.4062      0.00000
      7      15.5144      0.00000
      8      15.5318      0.00000

 k-point   249 :       0.5052    0.0104    0.5052
  band No.  band energies     occupation 
      1      -2.1299      2.00000
      2      -2.1284      2.00000
      3       2.8164      2.00000
      4       2.8235      2.00000
      5       6.3694      0.00000
      6       6.3780      0.00000
      7      15.5440      0.00000
      8      15.5486      0.00000

 k-point   250 :       0.5000    0.0000    0.5000
  band No.  band energies     occupation 
      1      -2.1295      2.00000
      2      -2.1295      2.00000
      3       2.8227      2.00000
      4       2.8227      2.00000
      5       6.3685      0.00000
      6       6.3685      0.00000
      7      15.5542      0.00000
      8      15.5543      0.00000


--------------------------------------------------------------------------------------------------------


 soft charge-density along one line, spin component           1
         0         1         2         3         4         5         6         7         8         9
 total charge-density along one line
 
 pseudopotential strength for first ion, spin component:           1
 18.437  25.723  -0.000  -0.000  -0.000  -0.000  -0.000  -0.000
 25.723  35.893  -0.000  -0.000  -0.000  -0.000  -0.000  -0.000
 -0.000  -0.000   4.181  -0.000  -0.000   7.790  -0.000  -0.000
 -0.000  -0.000  -0.000   4.181  -0.000  -0.000   7.790  -0.000
 -0.000  -0.000  -0.000  -0.000   4.181  -0.000  -0.000   7.790
 -0.000  -0.000   7.790  -0.000  -0.000  14.528  -0.000  -0.000
 -0.000  -0.000  -0.000   7.790  -0.000  -0.000  14.528  -0.000
 -0.000  -0.000  -0.000  -0.000   7.790  -0.000  -0.000  14.528
 total augmentation occupancy for first ion, spin component:           1
  2.000   0.000   0.000   0.000   0.000   0.000   0.000   0.000
  0.000   0.000   0.000   0.000   0.000   0.000   0.000   0.000
  0.000   0.000   0.667   0.000   0.000   0.000   0.000   0.000
  0.000   0.000   0.000   0.667   0.000   0.000   0.000   0.000
  0.000   0.000   0.000   0.000   0.667   0.000   0.000   0.000
  0.000   0.000   0.000   0.000   0.000   0.000   0.000   0.000
  0.000   0.000   0.000   0.000   0.000   0.000   0.000   0.000
  0.000   0.000   0.000   0.000   0.000   0.000   0.000   0.000


------------------------ aborting loop because EDIFF is reached ----------------------------------------





 total charge

# of ion       s       p       d       tot
------------------------------------------
    1        0.738   0.942   0.000   1.680
    2        0.738   0.942   0.000   1.680
--------------------------------------------------
tot          1.476   1.883   0.000   3.360
 
    CHARGE:  cpu time      0.1779: real time      0.1792
    FORLOC:  cpu time      0.0016: real time      0.0016
    FORNL :  cpu time      0.0973: real time      0.0979
    FORCOR:  cpu time      0.0321: real time      0.0324
    FORHAR:  cpu time      0.0075: real time      0.0076
    OFIELD:  cpu time      0.0002: real time      0.0002

 VOLUME and BASIS-vectors are now :
 -----------------------------------------------------------------------------
  energy-cutoff  :      520.00
  volume of cell :       40.89
      direct lattice vectors                 reciprocal lattice vectors
     0.000000000  2.734291991  2.734291991    -0.182862694  0.182862694  0.182862694
     2.734291991  0.000000000  2.734291991     0.182862694 -0.182862694  0.182862694
     2.734291991  2.734291991  0.000000000     0.182862694  0.182862694 -0.182862694

  length of vectors
     3.866872817  3.866872817  3.866872817     0.316727477  0.316727477  0.316727477


 FORCES acting on ions
    electron-ion (+dipol)            ewald-force                    non-local-force                 convergence-correction
 -----------------------------------------------------------------------------------------------
   0.606E-08 0.606E-08 0.846E-08   -.325E-15 -.901E-15 0.113E-15   -.173E-16 -.694E-16 -.170E-15   0.688E-11 0.687E-11 0.687E-11
   -.606E-08 -.606E-08 -.846E-08   0.471E-15 0.992E-15 -.560E-15   -.104E-16 0.486E-16 0.177E-15   -.687E-11 -.687E-11 -.687E-11
 -----------------------------------------------------------------------------------------------
   -.421E-13 -.661E-13 -.128E-13   0.146E-15 0.902E-16 -.447E-15   -.278E-16 -.208E-16 0.694E-17   0.218E-14 0.976E-15 0.693E-16
 
 
 POSITION                                       TOTAL-FORCE (eV/Angst)
 -----------------------------------------------------------------------------------
      0.00000      0.00000      0.00000        -0.000000      0.000000      0.000000
      1.36715      1.36715      1.36715         0.000000     -0.000000     -0.000000
 -----------------------------------------------------------------------------------
    total drift:                               -0.000000     -0.000000     -0.000000


--------------------------------------------------------------------------------------------------------



  FREE ENERGIE OF THE ION-ELECTRON SYSTEM (eV)
  ---------------------------------------------------
  free  energy   TOTEN  =       -11.03937547 eV

  energy  without entropy=      -11.03937547  energy(sigma->0) =      -11.03937547
 


--------------------------------------------------------------------------------------------------------


    POTLOK:  cpu time      0.0351: real time      0.0354


--------------------------------------------------------------------------------------------------------


 stress matrix after NEB project (eV)
      0.00000      0.00000      0.00000
      0.00000      0.00000      0.00000
      0.00000      0.00000      0.00000
  FORCES: max atom, RMS     0.000000    0.000000
  FORCE total and by dimension    0.000000    0.000000
  Stress total and by dimension    0.000000    0.000000
     LOOP+:  cpu time     21.4213: real time     21.8309
    4ORBIT:  cpu time      0.0000: real time      0.0000



 total charge

# of ion       s       p       d       tot
------------------------------------------
    1        0.738   0.942   0.000   1.680
    2        0.738   0.942   0.000   1.680
--------------------------------------------------
tot          1.476   1.883   0.000   3.360
 

 total amount of memory used by VASP MPI-rank0    62875. kBytes
=======================================================================

   base      :      30000. kBytes
   nonl-proj :      18019. kBytes
   fftplans  :       1986. kBytes
   grid      :       3744. kBytes
   one-center:          6. kBytes
   wavefun   :       9120. kBytes
 
  
  
 General timing and accounting informations for this job:
 ========================================================
  
                  Total CPU time used (sec):       24.007
                            User time (sec):       23.603
                          System time (sec):        0.404
                         Elapsed time (sec):       25.244
  
                   Maximum memory used (kb):      169172.
                   Average memory used (kb):          N/A
  
                          Minor page faults:        30353
                          Major page faults:          825
                 Voluntary context switches:         3252
