PROCAR lm decomposed
# of k-points:  250         # of bands:    8         # of ions:    2

 k-point     1 :    0.00000000 0.00000000 0.00000000     weight = 0.00400000

band     1 # energy   -6.19820682 # occ.  2.00000000
 
ion      s     py     pz     px    dxy    dyz    dz2    dxz  x2-y2    tot
    1  0.212  0.000  0.000  0.000  0.000  0.000  0.000  0.000  0.000  0.212
    2  0.212  0.000  0.000  0.000  0.000  0.000  0.000  0.000  0.000  0.212
tot    0.424  0.000  0.000  0.000  0.000  0.000  0.000  0.000  0.000  0.424
 
band     2 # energy    5.61697274 # occ.  2.00000000
 
ion      s     py     pz     px    dxy    dyz    dz2    dxz  x2-y2    tot
    1  0.000  0.071  0.071  0.071  0.000  0.000  0.000  0.000  0.000  0.214
    2  0.000  0.071  0.071  0.071  0.000  0.000  0.000  0.000  0.000  0.214
tot    0.000  0.143  0.143  0.143  0.000  0.000  0.000  0.000  0.000  0.428
 
band     3 # energy    5.61697279 # occ.  2.00000000
 
ion      s     py     pz     px    dxy    dyz    dz2    dxz  x2-y2    tot
    1  0.000  0.028  0.141  0.044  0.000  0.000  0.000  0.000  0.000  0.214
    2  0.000  0.028  0.141  0.044  0.000  0.000  0.000  0.000  0.000  0.214
tot    0.000  0.057  0.282  0.089  0.000  0.000  0.000  0.000  0.000  0.428
 
band     4 # energy    5.61697279 # occ.  2.00000000
 
ion      s     py     pz     px    dxy    dyz    dz2    dxz  x2-y2    tot
    1  0.000  0.114  0.001  0.098  0.000  0.000  0.000  0.000  0.000  0.214
    2  0.000  0.114  0.001  0.098  0.000  0.000  0.000  0.000  0.000  0.214
tot    0.000  0.229  0.003  0.196  0.000  0.000  0.000  0.000  0.000  0.428
 
band     5 # energy    8.17389438 # occ.  0.00000000
 
ion      s     py     pz     px    dxy    dyz    dz2    dxz  x2-y2    tot
    1  0.000  0.050  0.050  0.050  0.000  0.000  0.000  0.000  0.000  0.151
    2  0.000  0.050  0.050  0.050  0.000  0.000  0.000  0.000  0.000  0.151
tot    0.000  0.100  0.100  0.100  0.000  0.000  0.000  0.000  0.000  0.301
 
band     6 # energy    8.17389442 # occ.  0.00000000
 
ion      s     py     pz     px    dxy    dyz    dz2    dxz  x2-y2    tot
    1  0.000  0.033  0.054  0.063  0.000  0.000  0.000  0.000  0.000  0.151
    2  0.000  0.033  0.054  0.063  0.000  0.000  0.000  0.000  0.000  0.151
tot    0.000  0.067  0.108  0.126  0.000  0.000  0.000  0.000  0.000  0.301
 
band     7 # energy    8.17389442 # occ.  0.00000000
 
ion      s     py     pz     px    dxy    dyz    dz2    dxz  x2-y2    tot
    1  0.000  0.067  0.046  0.037  0.000  0.000  0.000  0.000  0.000  0.151
    2  0.000  0.067  0.046  0.037  0.000  0.000  0.000  0.000  0.000  0.151
tot    0.000  0.134  0.092  0.075  0.000  0.000  0.000  0.000  0.000  0.301
 
band     8 # energy    8.75177633 # occ.  0.00000000
 
ion      s     py     pz     px    dxy    dyz    dz2    dxz  x2-y2    tot
    1  0.359  0.000  0.000  0.000  0.000  0.000  0.000  0.000  0.000  0.359
    2  0.359  0.000  0.000  0.000  0.000  0.000  0.000  0.000  0.000  0.359
tot    0.717  0.000  0.000  0.000  0.000  0.000  0.000  0.000  0.000  0.717
 

 k-point     2 :    0.02083333 0.00000000 0.02083333     weight = 0.00400000

band     1 # energy   -6.19075871 # occ.  2.00000000
 
ion      s     py     pz     px    dxy    dyz    dz2    dxz  x2-y2    tot
    1  0.212  0.000  0.000  0.000  0.000  0.000  0.000  0.000  0.000  0.212
    2  0.212  0.000  0.000  0.000  0.000  0.000  0.000  0.000  0.000  0.212
tot    0.424  0.000  0.000  0.000  0.000  0.000  0.000  0.000  0.000  0.424
 
band     2 # energy    5.56299424 # occ.  2.00000000
 
ion      s     py     pz     px    dxy    dyz    dz2    dxz  x2-y2    tot
    1  0.007  0.209  0.000  0.000  0.000  0.000  0.000  0.000  0.000  0.216
    2  0.007  0.209  0.000  0.000  0.000  0.000  0.000  0.000  0.000  0.216
tot    0.014  0.418  0.000  0.000  0.000  0.000  0.000  0.000  0.000  0.432
 
band     3 # energy    5.58513110 # occ.  2.00000000
 
ion      s     py     pz     px    dxy    dyz    dz2    dxz  x2-y2    tot
    1  0.000  0.000  0.106  0.106  0.000  0.000  0.000  0.000  0.000  0.213
    2  0.000  0.000  0.106  0.106  0.000  0.000  0.000  0.000  0.000  0.213
tot    0.000  0.000  0.213  0.213  0.000  0.000  0.000  0.000  0.000  0.426
 
band     4 # energy    5.58513114 # occ.  2.00000000
 
ion      s     py     pz     px    dxy    dyz    dz2    dxz  x2-y2    tot
    1  0.000  0.000  0.106  0.106  0.000  0.000  0.000  0.000  0.000  0.213
    2  0.000  0.000  0.106  0.106  0.000  0.000  0.000  0.000  0.000  0.213
tot    0.000  0.000  0.213  0.213  0.000  0.000  0.000  0.000  0.000  0.426
 
band     5 # energy    8.15530477 # occ.  0.00000000
 
ion      s     py     pz     px    dxy    dyz    dz2    dxz  x2-y2    tot
    1  0.001  0.149  0.000  0.000  0.000  0.000  0.000  0.000  0.000  0.150
    2  0.001  0.149  0.000  0.000  0.000  0.000  0.000  0.000  0.000  0.150
tot    0.002  0.299  0.000  0.000  0.000  0.000  0.000  0.000  0.000  0.300
 
band     6 # energy    8.21493596 # occ.  0.00000000
 
ion      s     py     pz     px    dxy    dyz    dz2    dxz  x2-y2    tot
    1  0.000  0.000  0.076  0.076  0.000  0.000  0.000  0.000  0.000  0.151
    2  0.000  0.000  0.076  0.076  0.000  0.000  0.000  0.000  0.000  0.151
tot    0.000  0.000  0.151  0.151  0.000  0.000  0.000  0.000  0.000  0.303
 
band     7 # energy    8.21493599 # occ.  0.00000000
 
ion      s     py     pz     px    dxy    dyz    dz2    dxz  x2-y2    tot
    1  0.000  0.000  0.076  0.076  0.000  0.000  0.000  0.000  0.000  0.151
    2  0.000  0.000  0.076  0.076  0.000  0.000  0.000  0.000  0.000  0.151
tot    0.000  0.000  0.151  0.151  0.000  0.000  0.000  0.000  0.000  0.303
 
band     8 # energy    8.80468379 # occ.  0.00000000
 
ion      s     py     pz     px    dxy    dyz    dz2    dxz  x2-y2    tot
    1  0.351  0.005  0.000  0.000  0.000  0.000  0.000  0.000  0.000  0.357
    2  0.351  0.005  0.000  0.000  0.000  0.000  0.000  0.000  0.000  0.357
tot    0.703  0.010  0.000  0.000  0.000  0.000  0.000  0.000  0.000  0.713
 

 k-point     3 :    0.04166667 0.00000000 0.04166667     weight = 0.00400000

band     1 # energy   -6.16837309 # occ.  2.00000000
 
ion      s     py     pz     px    dxy    dyz    dz2    dxz  x2-y2    tot
    1  0.212  0.000  0.000  0.000  0.000  0.000  0.000  0.000  0.000  0.212
    2  0.212  0.000  0.000  0.000  0.000  0.000  0.000  0.000  0.000  0.212
tot    0.424  0.001  0.000  0.000  0.000  0.000  0.000  0.000  0.000  0.424
 
band     2 # energy    5.41134490 # occ.  2.00000000
 
ion      s     py     pz     px    dxy    dyz    dz2    dxz  x2-y2    tot
    1  0.024  0.197  0.000  0.000  0.000  0.000  0.000  0.000  0.000  0.221
    2  0.024  0.197  0.000  0.000  0.000  0.000  0.000  0.000  0.000  0.221
tot    0.048  0.394  0.000  0.000  0.000  0.000  0.000  0.000  0.000  0.443
 
band     3 # energy    5.49543459 # occ.  2.00000000
 
ion      s     py     pz     px    dxy    dyz    dz2    dxz  x2-y2    tot
    1  0.000  0.000  0.105  0.105  0.000  0.000  0.000  0.000  0.000  0.211
    2  0.000  0.000  0.105  0.105  0.000  0.000  0.000  0.000  0.000  0.211
tot    0.000  0.000  0.211  0.211  0.000  0.000  0.000  0.000  0.000  0.422
 
band     4 # energy    5.49543462 # occ.  2.00000000
 
ion      s     py     pz     px    dxy    dyz    dz2    dxz  x2-y2    tot
    1  0.000  0.000  0.105  0.105  0.000  0.000  0.000  0.000  0.000  0.211
    2  0.000  0.000  0.105  0.105  0.000  0.000  0.000  0.000  0.000  0.211
tot    0.000  0.000  0.211  0.211  0.000  0.000  0.000  0.000  0.000  0.422
 
band     5 # energy    8.10114875 # occ.  0.00000000
 
ion      s     py     pz     px    dxy    dyz    dz2    dxz  x2-y2    tot
    1  0.003  0.146  0.000  0.000  0.000  0.000  0.000  0.000  0.000  0.149
    2  0.003  0.146  0.000  0.000  0.000  0.000  0.000  0.000  0.000  0.149
tot    0.006  0.291  0.000  0.000  0.000  0.000  0.000  0.000  0.000  0.298
 
band     6 # energy    8.33222199 # occ.  0.00000000
 
ion      s     py     pz     px    dxy    dyz    dz2    dxz  x2-y2    tot
    1  0.000  0.000  0.077  0.077  0.000  0.000  0.000  0.000  0.000  0.154
    2  0.000  0.000  0.077  0.077  0.000  0.000  0.000  0.000  0.000  0.154
tot    0.000  0.000  0.153  0.154  0.000  0.000  0.000  0.000  0.000  0.307
 
band     7 # energy    8.33222202 # occ.  0.00000000
 
ion      s     py     pz     px    dxy    dyz    dz2    dxz  x2-y2    tot
    1  0.000  0.000  0.077  0.077  0.000  0.000  0.000  0.000  0.000  0.154
    2  0.000  0.000  0.077  0.077  0.000  0.000  0.000  0.000  0.000  0.154
tot    0.000  0.000  0.154  0.153  0.000  0.000  0.000  0.000  0.000  0.307
 
band     8 # energy    8.95175415 # occ.  0.00000000
 
ion      s     py     pz     px    dxy    dyz    dz2    dxz  x2-y2    tot
    1  0.334  0.018  0.000  0.000  0.000  0.000  0.000  0.000  0.000  0.352
    2  0.334  0.018  0.000  0.000  0.000  0.000  0.000  0.000  0.000  0.352
tot    0.667  0.036  0.000  0.000  0.000  0.000  0.000  0.000  0.000  0.703
 

 k-point     4 :    0.06250000 0.00000000 0.06250000     weight = 0.00400000

band     1 # energy   -6.13106712 # occ.  2.00000000
 
ion      s     py     pz     px    dxy    dyz    dz2    dxz  x2-y2    tot
    1  0.212  0.001  0.000  0.000  0.000  0.000  0.000  0.000  0.000  0.212
    2  0.212  0.001  0.000  0.000  0.000  0.000  0.000  0.000  0.000  0.212
tot    0.423  0.001  0.000  0.000  0.000  0.000  0.000  0.000  0.000  0.425
 
band     2 # energy    5.18519152 # occ.  2.00000000
 
ion      s     py     pz     px    dxy    dyz    dz2    dxz  x2-y2    tot
    1  0.045  0.183  0.000  0.000  0.000  0.000  0.000  0.000  0.000  0.228
    2  0.045  0.183  0.000  0.000  0.000  0.000  0.000  0.000  0.000  0.228
tot    0.091  0.365  0.000  0.000  0.000  0.000  0.000  0.000  0.000  0.456
 
band     3 # energy    5.36161143 # occ.  2.00000000
 
ion      s     py     pz     px    dxy    dyz    dz2    dxz  x2-y2    tot
    1  0.000  0.000  0.104  0.104  0.000  0.000  0.000  0.000  0.000  0.208
    2  0.000  0.000  0.104  0.104  0.000  0.000  0.000  0.000  0.000  0.208
tot    0.000  0.000  0.208  0.208  0.000  0.000  0.000  0.000  0.000  0.417
 
band     4 # energy    5.36161146 # occ.  2.00000000
 
ion      s     py     pz     px    dxy    dyz    dz2    dxz  x2-y2    tot
    1  0.000  0.000  0.104  0.104  0.000  0.000  0.000  0.000  0.000  0.208
    2  0.000  0.000  0.104  0.104  0.000  0.000  0.000  0.000  0.000  0.208
tot    0.000  0.000  0.208  0.208  0.000  0.000  0.000  0.000  0.000  0.417
 
band     5 # energy    8.01565943 # occ.  0.00000000
 
ion      s     py     pz     px    dxy    dyz    dz2    dxz  x2-y2    tot
    1  0.007  0.140  0.000  0.000  0.000  0.000  0.000  0.000  0.000  0.147
    2  0.007  0.140  0.000  0.000  0.000  0.000  0.000  0.000  0.000  0.147
tot    0.013  0.280  0.000  0.000  0.000  0.000  0.000  0.000  0.000  0.293
 
band     6 # energy    8.51194058 # occ.  0.00000000
 
ion      s     py     pz     px    dxy    dyz    dz2    dxz  x2-y2    tot
    1  0.000  0.000  0.078  0.078  0.000  0.000  0.000  0.000  0.000  0.156
    2  0.000  0.000  0.078  0.078  0.000  0.000  0.000  0.000  0.000  0.156
tot    0.000  0.000  0.156  0.156  0.000  0.000  0.000  0.000  0.000  0.312
 
band     7 # energy    8.51194061 # occ.  0.00000000
 
ion      s     py     pz     px    dxy    dyz    dz2    dxz  x2-y2    tot
    1  0.000  0.000  0.078  0.078  0.000  0.000  0.000  0.000  0.000  0.156
    2  0.000  0.000  0.078  0.078  0.000  0.000  0.000  0.000  0.000  0.156
tot    0.000  0.000  0.156  0.156  0.000  0.000  0.000  0.000  0.000  0.312
 
band     8 # energy    9.16508143 # occ.  0.00000000
 
ion      s     py     pz     px    dxy    dyz    dz2    dxz  x2-y2    tot
    1  0.311  0.035  0.000  0.000  0.000  0.000  0.000  0.000  0.000  0.345
    2  0.311  0.035  0.000  0.000  0.000  0.000  0.000  0.000  0.000  0.345
tot    0.621  0.069  0.000  0.000  0.000  0.000  0.000  0.000  0.000  0.690
 

 k-point     5 :    0.08333333 0.00000000 0.08333333     weight = 0.00400000

band     1 # energy   -6.07888836 # occ.  2.00000000
 
ion      s     py     pz     px    dxy    dyz    dz2    dxz  x2-y2    tot
    1  0.211  0.001  0.000  0.000  0.000  0.000  0.000  0.000  0.000  0.213
    2  0.211  0.001  0.000  0.000  0.000  0.000  0.000  0.000  0.000  0.213
tot    0.423  0.003  0.000  0.000  0.000  0.000  0.000  0.000  0.000  0.425
 
band     2 # energy    4.90794365 # occ.  2.00000000
 
ion      s     py     pz     px    dxy    dyz    dz2    dxz  x2-y2    tot
    1  0.066  0.168  0.000  0.000  0.000  0.000  0.000  0.000  0.000  0.234
    2  0.066  0.168  0.000  0.000  0.000  0.000  0.000  0.000  0.000  0.234
tot    0.132  0.336  0.000  0.000  0.000  0.000  0.000  0.000  0.000  0.468
 
band     3 # energy    5.19858185 # occ.  2.00000000
 
ion      s     py     pz     px    dxy    dyz    dz2    dxz  x2-y2    tot
    1  0.000  0.000  0.103  0.103  0.000  0.000  0.000  0.000  0.000  0.206
    2  0.000  0.000  0.103  0.103  0.000  0.000  0.000  0.000  0.000  0.206
tot    0.000  0.000  0.206  0.206  0.000  0.000  0.000  0.000  0.000  0.412
 
band     4 # energy    5.19858188 # occ.  2.00000000
 
ion      s     py     pz     px    dxy    dyz    dz2    dxz  x2-y2    tot
    1  0.000  0.000  0.103  0.103  0.000  0.000  0.000  0.000  0.000  0.206
    2  0.000  0.000  0.103  0.103  0.000  0.000  0.000  0.000  0.000  0.206
tot    0.000  0.000  0.206  0.206  0.000  0.000  0.000  0.000  0.000  0.412
 
band     5 # energy    7.90476571 # occ.  0.00000000
 
ion      s     py     pz     px    dxy    dyz    dz2    dxz  x2-y2    tot
    1  0.011  0.133  0.000  0.000  0.000  0.000  0.000  0.000  0.000  0.144
    2  0.011  0.133  0.000  0.000  0.000  0.000  0.000  0.000  0.000  0.144
tot    0.022  0.266  0.000  0.000  0.000  0.000  0.000  0.000  0.000  0.288
 
band     6 # energy    8.73900579 # occ.  0.00000000
 
ion      s     py     pz     px    dxy    dyz    dz2    dxz  x2-y2    tot
    1  0.000  0.000  0.079  0.079  0.000  0.000  0.000  0.000  0.000  0.159
    2  0.000  0.000  0.079  0.080  0.000  0.000  0.000  0.000  0.000  0.159
tot    0.000  0.000  0.158  0.159  0.000  0.000  0.000  0.000  0.000  0.317
 
band     7 # energy    8.73900582 # occ.  0.00000000
 
ion      s     py     pz     px    dxy    dyz    dz2    dxz  x2-y2    tot
    1  0.000  0.000  0.079  0.079  0.000  0.000  0.000  0.000  0.000  0.159
    2  0.000  0.000  0.080  0.079  0.000  0.000  0.000  0.000  0.000  0.159
tot    0.000  0.000  0.159  0.158  0.000  0.000  0.000  0.000  0.000  0.317
 
band     8 # energy    9.41110209 # occ.  0.00000000
 
ion      s     py     pz     px    dxy    dyz    dz2    dxz  x2-y2    tot
    1  0.286  0.051  0.000  0.000  0.000  0.000  0.000  0.000  0.000  0.337
    2  0.286  0.051  0.000  0.000  0.000  0.000  0.000  0.000  0.000  0.337
tot    0.572  0.103  0.000  0.000  0.000  0.000  0.000  0.000  0.000  0.675
 

 k-point     6 :    0.10416667 0.00000000 0.10416667     weight = 0.00400000

band     1 # energy   -6.01190252 # occ.  2.00000000
 
ion      s     py     pz     px    dxy    dyz    dz2    dxz  x2-y2    tot
    1  0.211  0.002  0.000  0.000  0.000  0.000  0.000  0.000  0.000  0.213
    2  0.211  0.002  0.000  0.000  0.000  0.000  0.000  0.000  0.000  0.213
tot    0.422  0.004  0.000  0.000  0.000  0.000  0.000  0.000  0.000  0.426
 
band     2 # energy    4.59726050 # occ.  2.00000000
 
ion      s     py     pz     px    dxy    dyz    dz2    dxz  x2-y2    tot
    1  0.084  0.155  0.000  0.000  0.000  0.000  0.000  0.000  0.000  0.239
    2  0.084  0.155  0.000  0.000  0.000  0.000  0.000  0.000  0.000  0.239
tot    0.168  0.310  0.000  0.000  0.000  0.000  0.000  0.000  0.000  0.478
 
band     3 # energy    5.01856981 # occ.  2.00000000
 
ion      s     py     pz     px    dxy    dyz    dz2    dxz  x2-y2    tot
    1  0.000  0.000  0.102  0.102  0.000  0.000  0.000  0.000  0.000  0.204
    2  0.000  0.000  0.102  0.102  0.000  0.000  0.000  0.000  0.000  0.204
tot    0.000  0.000  0.204  0.204  0.000  0.000  0.000  0.000  0.000  0.407
 
band     4 # energy    5.01856984 # occ.  2.00000000
 
ion      s     py     pz     px    dxy    dyz    dz2    dxz  x2-y2    tot
    1  0.000  0.000  0.102  0.102  0.000  0.000  0.000  0.000  0.000  0.204
    2  0.000  0.000  0.102  0.102  0.000  0.000  0.000  0.000  0.000  0.204
tot    0.000  0.000  0.204  0.204  0.000  0.000  0.000  0.000  0.000  0.407
 
band     5 # energy    7.77498897 # occ.  0.00000000
 
ion      s     py     pz     px    dxy    dyz    dz2    dxz  x2-y2    tot
    1  0.015  0.126  0.000  0.000  0.000  0.000  0.000  0.000  0.000  0.141
    2  0.015  0.126  0.000  0.000  0.000  0.000  0.000  0.000  0.000  0.141
tot    0.031  0.251  0.000  0.000  0.000  0.000  0.000  0.000  0.000  0.282
 
band     6 # energy    9.00101516 # occ.  0.00000000
 
ion      s     py     pz     px    dxy    dyz    dz2    dxz  x2-y2    tot
    1  0.000  0.000  0.080  0.080  0.000  0.000  0.000  0.000  0.000  0.161
    2  0.000  0.000  0.080  0.080  0.000  0.000  0.000  0.000  0.000  0.161
tot    0.000  0.000  0.161  0.161  0.000  0.000  0.000  0.000  0.000  0.322
 
band     7 # energy    9.00101519 # occ.  0.00000000
 
ion      s     py     pz     px    dxy    dyz    dz2    dxz  x2-y2    tot
    1  0.000  0.000  0.080  0.080  0.000  0.000  0.000  0.000  0.000  0.161
    2  0.000  0.000  0.080  0.080  0.000  0.000  0.000  0.000  0.000  0.161
tot    0.000  0.000  0.161  0.161  0.000  0.000  0.000  0.000  0.000  0.322
 
band     8 # energy    9.65190217 # occ.  0.00000000
 
ion      s     py     pz     px    dxy    dyz    dz2    dxz  x2-y2    tot
    1  0.258  0.067  0.000  0.000  0.000  0.000  0.000  0.000  0.000  0.325
    2  0.258  0.067  0.000  0.000  0.000  0.000  0.000  0.000  0.000  0.325
tot    0.517  0.133  0.000  0.000  0.000  0.000  0.000  0.000  0.000  0.650
 

 k-point     7 :    0.12500000 0.00000000 0.12500000     weight = 0.00400000

band     1 # energy   -5.93015566 # occ.  2.00000000
 
ion      s     py     pz     px    dxy    dyz    dz2    dxz  x2-y2    tot
    1  0.211  0.003  0.000  0.000  0.000  0.000  0.000  0.000  0.000  0.214
    2  0.211  0.003  0.000  0.000  0.000  0.000  0.000  0.000  0.000  0.214
tot    0.421  0.006  0.000  0.000  0.000  0.000  0.000  0.000  0.000  0.427
 
band     2 # energy    4.26495361 # occ.  2.00000000
 
ion      s     py     pz     px    dxy    dyz    dz2    dxz  x2-y2    tot
    1  0.100  0.143  0.000  0.000  0.000  0.000  0.000  0.000  0.000  0.243
    2  0.100  0.143  0.000  0.000  0.000  0.000  0.000  0.000  0.000  0.243
tot    0.200  0.287  0.000  0.000  0.000  0.000  0.000  0.000  0.000  0.487
 
band     3 # energy    4.83041305 # occ.  2.00000000
 
ion      s     py     pz     px    dxy    dyz    dz2    dxz  x2-y2    tot
    1  0.000  0.000  0.101  0.101  0.000  0.000  0.000  0.000  0.000  0.202
    2  0.000  0.000  0.101  0.101  0.000  0.000  0.000  0.000  0.000  0.202
tot    0.000  0.000  0.202  0.202  0.000  0.000  0.000  0.000  0.000  0.403
 
band     4 # energy    4.83041308 # occ.  2.00000000
 
ion      s     py     pz     px    dxy    dyz    dz2    dxz  x2-y2    tot
    1  0.000  0.000  0.101  0.101  0.000  0.000  0.000  0.000  0.000  0.202
    2  0.000  0.000  0.101  0.101  0.000  0.000  0.000  0.000  0.000  0.202
tot    0.000  0.000  0.202  0.202  0.000  0.000  0.000  0.000  0.000  0.403
 
band     5 # energy    7.63262314 # occ.  0.00000000
 
ion      s     py     pz     px    dxy    dyz    dz2    dxz  x2-y2    tot
    1  0.020  0.118  0.000  0.000  0.000  0.000  0.000  0.000  0.000  0.138
    2  0.020  0.118  0.000  0.000  0.000  0.000  0.000  0.000  0.000  0.138
tot    0.040  0.236  0.000  0.000  0.000  0.000  0.000  0.000  0.000  0.276
 
band     6 # energy    9.28889082 # occ.  0.00000000
 
ion      s     py     pz     px    dxy    dyz    dz2    dxz  x2-y2    tot
    1  0.000  0.000  0.078  0.085  0.000  0.000  0.000  0.000  0.000  0.163
    2  0.000  0.000  0.087  0.076  0.000  0.000  0.000  0.000  0.000  0.163
tot    0.000  0.000  0.164  0.161  0.000  0.000  0.000  0.000  0.000  0.326
 
band     7 # energy    9.28889085 # occ.  0.00000000
 
ion      s     py     pz     px    dxy    dyz    dz2    dxz  x2-y2    tot
    1  0.000  0.000  0.085  0.078  0.000  0.000  0.000  0.000  0.000  0.163
    2  0.000  0.000  0.076  0.087  0.000  0.000  0.000  0.000  0.000  0.163
tot    0.000  0.000  0.161  0.164  0.000  0.000  0.000  0.000  0.000  0.326
 
band     8 # energy    9.83801781 # occ.  0.00000000
 
ion      s     py     pz     px    dxy    dyz    dz2    dxz  x2-y2    tot
    1  0.223  0.077  0.000  0.000  0.000  0.000  0.000  0.000  0.000  0.300
    2  0.223  0.077  0.000  0.000  0.000  0.000  0.000  0.000  0.000  0.300
tot    0.446  0.154  0.000  0.000  0.000  0.000  0.000  0.000  0.000  0.600
 

 k-point     8 :    0.14583333 0.00000000 0.14583333     weight = 0.00400000

band     1 # energy   -5.83373177 # occ.  2.00000000
 
ion      s     py     pz     px    dxy    dyz    dz2    dxz  x2-y2    tot
    1  0.210  0.004  0.000  0.000  0.000  0.000  0.000  0.000  0.000  0.214
    2  0.210  0.004  0.000  0.000  0.000  0.000  0.000  0.000  0.000  0.214
tot    0.420  0.008  0.000  0.000  0.000  0.000  0.000  0.000  0.000  0.428
 
band     2 # energy    3.91858097 # occ.  2.00000000
 
ion      s     py     pz     px    dxy    dyz    dz2    dxz  x2-y2    tot
    1  0.113  0.133  0.000  0.000  0.000  0.000  0.000  0.000  0.000  0.247
    2  0.113  0.133  0.000  0.000  0.000  0.000  0.000  0.000  0.000  0.247
tot    0.227  0.267  0.000  0.000  0.000  0.000  0.000  0.000  0.000  0.493
 
band     3 # energy    4.64020473 # occ.  2.00000000
 
ion      s     py     pz     px    dxy    dyz    dz2    dxz  x2-y2    tot
    1  0.000  0.000  0.100  0.100  0.000  0.000  0.000  0.000  0.000  0.200
    2  0.000  0.000  0.100  0.100  0.000  0.000  0.000  0.000  0.000  0.200
tot    0.000  0.000  0.200  0.200  0.000  0.000  0.000  0.000  0.000  0.400
 
band     4 # energy    4.64020475 # occ.  2.00000000
 
ion      s     py     pz     px    dxy    dyz    dz2    dxz  x2-y2    tot
    1  0.000  0.000  0.100  0.100  0.000  0.000  0.000  0.000  0.000  0.200
    2  0.000  0.000  0.100  0.100  0.000  0.000  0.000  0.000  0.000  0.200
tot    0.000  0.000  0.200  0.200  0.000  0.000  0.000  0.000  0.000  0.400
 
band     5 # energy    7.48322001 # occ.  0.00000000
 
ion      s     py     pz     px    dxy    dyz    dz2    dxz  x2-y2    tot
    1  0.024  0.110  0.000  0.000  0.000  0.000  0.000  0.000  0.000  0.135
    2  0.024  0.110  0.000  0.000  0.000  0.000  0.000  0.000  0.000  0.135
tot    0.049  0.221  0.000  0.000  0.000  0.000  0.000  0.000  0.000  0.270
 
band     6 # energy    9.59626090 # occ.  0.00000000
 
ion      s     py     pz     px    dxy    dyz    dz2    dxz  x2-y2    tot
    1  0.000  0.000  0.071  0.094  0.000  0.000  0.000  0.000  0.000  0.164
    2  0.000  0.000  0.094  0.070  0.000  0.000  0.000  0.000  0.000  0.164
tot    0.000  0.000  0.165  0.164  0.000  0.000  0.000  0.000  0.000  0.328
 
band     7 # energy    9.59626093 # occ.  0.00000000
 
ion      s     py     pz     px    dxy    dyz    dz2    dxz  x2-y2    tot
    1  0.000  0.000  0.094  0.071  0.000  0.000  0.000  0.000  0.000  0.164
    2  0.000  0.000  0.070  0.094  0.000  0.000  0.000  0.000  0.000  0.164
tot    0.000  0.000  0.164  0.165  0.000  0.000  0.000  0.000  0.000  0.328
 
band     8 # energy    9.90846397 # occ.  0.00000000
 
ion      s     py     pz     px    dxy    dyz    dz2    dxz  x2-y2    tot
    1  0.176  0.078  0.000  0.000  0.000  0.000  0.000  0.000  0.000  0.254
    2  0.176  0.078  0.000  0.000  0.000  0.000  0.000  0.000  0.000  0.254
tot    0.351  0.157  0.000  0.000  0.000  0.000  0.000  0.000  0.000  0.508
 

 k-point     9 :    0.16666667 0.00000000 0.16666667     weight = 0.00400000

band     1 # energy   -5.72272078 # occ.  2.00000000
 
ion      s     py     pz     px    dxy    dyz    dz2    dxz  x2-y2    tot
    1  0.210  0.005  0.000  0.000  0.000  0.000  0.000  0.000  0.000  0.215
    2  0.210  0.005  0.000  0.000  0.000  0.000  0.000  0.000  0.000  0.215
tot    0.419  0.010  0.000  0.000  0.000  0.000  0.000  0.000  0.000  0.429
 
band     2 # energy    3.56300477 # occ.  2.00000000
 
ion      s     py     pz     px    dxy    dyz    dz2    dxz  x2-y2    tot
    1  0.125  0.124  0.000  0.000  0.000  0.000  0.000  0.000  0.000  0.249
    2  0.125  0.124  0.000  0.000  0.000  0.000  0.000  0.000  0.000  0.249
tot    0.250  0.249  0.000  0.000  0.000  0.000  0.000  0.000  0.000  0.499
 
band     3 # energy    4.45213267 # occ.  2.00000000
 
ion      s     py     pz     px    dxy    dyz    dz2    dxz  x2-y2    tot
    1  0.000  0.000  0.099  0.099  0.000  0.000  0.000  0.000  0.000  0.199
    2  0.000  0.000  0.099  0.099  0.000  0.000  0.000  0.000  0.000  0.199
tot    0.000  0.000  0.199  0.199  0.000  0.000  0.000  0.000  0.000  0.398
 
band     4 # energy    4.45213270 # occ.  2.00000000
 
ion      s     py     pz     px    dxy    dyz    dz2    dxz  x2-y2    tot
    1  0.000  0.000  0.099  0.099  0.000  0.000  0.000  0.000  0.000  0.199
    2  0.000  0.000  0.099  0.099  0.000  0.000  0.000  0.000  0.000  0.199
tot    0.000  0.000  0.199  0.199  0.000  0.000  0.000  0.000  0.000  0.398
 
band     5 # energy    7.33149998 # occ.  0.00000000
 
ion      s     py     pz     px    dxy    dyz    dz2    dxz  x2-y2    tot
    1  0.029  0.103  0.000  0.000  0.000  0.000  0.000  0.000  0.000  0.132
    2  0.029  0.103  0.000  0.000  0.000  0.000  0.000  0.000  0.000  0.132
tot    0.057  0.206  0.000  0.000  0.000  0.000  0.000  0.000  0.000  0.263
 
band     6 # energy    9.82862266 # occ.  0.00000000
 
ion      s     py     pz     px    dxy    dyz    dz2    dxz  x2-y2    tot
    1  0.127  0.071  0.000  0.000  0.000  0.000  0.000  0.000  0.000  0.198
    2  0.127  0.071  0.000  0.000  0.000  0.000  0.000  0.000  0.000  0.198
tot    0.255  0.141  0.000  0.000  0.000  0.000  0.000  0.000  0.000  0.396
 
band     7 # energy    9.91868204 # occ.  0.00000000
 
ion      s     py     pz     px    dxy    dyz    dz2    dxz  x2-y2    tot
    1  0.000  0.000  0.160  0.006  0.000  0.000  0.000  0.000  0.000  0.165
    2  0.000  0.000  0.002  0.164  0.000  0.000  0.000  0.000  0.000  0.165
tot    0.000  0.000  0.162  0.169  0.000  0.000  0.000  0.000  0.000  0.331
 
band     8 # energy    9.91868215 # occ.  0.00000000
 
ion      s     py     pz     px    dxy    dyz    dz2    dxz  x2-y2    tot
    1  0.000  0.000  0.006  0.160  0.000  0.000  0.000  0.000  0.000  0.165
    2  0.000  0.000  0.164  0.002  0.000  0.000  0.000  0.000  0.000  0.165
tot    0.000  0.000  0.169  0.162  0.000  0.000  0.000  0.000  0.000  0.331
 

 k-point    10 :    0.18750000 0.00000000 0.18750000     weight = 0.00400000

band     1 # energy   -5.59727342 # occ.  2.00000000
 
ion      s     py     pz     px    dxy    dyz    dz2    dxz  x2-y2    tot
    1  0.209  0.006  0.000  0.000  0.000  0.000  0.000  0.000  0.000  0.215
    2  0.209  0.006  0.000  0.000  0.000  0.000  0.000  0.000  0.000  0.215
tot    0.418  0.013  0.000  0.000  0.000  0.000  0.000  0.000  0.000  0.431
 
band     2 # energy    3.20138409 # occ.  2.00000000
 
ion      s     py     pz     px    dxy    dyz    dz2    dxz  x2-y2    tot
    1  0.135  0.117  0.000  0.000  0.000  0.000  0.000  0.000  0.000  0.251
    2  0.135  0.117  0.000  0.000  0.000  0.000  0.000  0.000  0.000  0.251
tot    0.269  0.233  0.000  0.000  0.000  0.000  0.000  0.000  0.000  0.502
 
band     3 # energy    4.26909613 # occ.  2.00000000
 
ion      s     py     pz     px    dxy    dyz    dz2    dxz  x2-y2    tot
    1  0.000  0.000  0.099  0.099  0.000  0.000  0.000  0.000  0.000  0.198
    2  0.000  0.000  0.099  0.099  0.000  0.000  0.000  0.000  0.000  0.198
tot    0.000  0.000  0.198  0.198  0.000  0.000  0.000  0.000  0.000  0.396
 
band     4 # energy    4.26909616 # occ.  2.00000000
 
ion      s     py     pz     px    dxy    dyz    dz2    dxz  x2-y2    tot
    1  0.000  0.000  0.099  0.099  0.000  0.000  0.000  0.000  0.000  0.198
    2  0.000  0.000  0.099  0.099  0.000  0.000  0.000  0.000  0.000  0.198
tot    0.000  0.000  0.198  0.198  0.000  0.000  0.000  0.000  0.000  0.396
 
band     5 # energy    7.18132211 # occ.  0.00000000
 
ion      s     py     pz     px    dxy    dyz    dz2    dxz  x2-y2    tot
    1  0.033  0.096  0.000  0.000  0.000  0.000  0.000  0.000  0.000  0.128
    2  0.033  0.096  0.000  0.000  0.000  0.000  0.000  0.000  0.000  0.128
tot    0.065  0.192  0.000  0.000  0.000  0.000  0.000  0.000  0.000  0.257
 
band     6 # energy    9.62694857 # occ.  0.00000000
 
ion      s     py     pz     px    dxy    dyz    dz2    dxz  x2-y2    tot
    1  0.092  0.060  0.000  0.000  0.000  0.000  0.000  0.000  0.000  0.152
    2  0.092  0.060  0.000  0.000  0.000  0.000  0.000  0.000  0.000  0.152
tot    0.184  0.120  0.000  0.000  0.000  0.000  0.000  0.000  0.000  0.305
 
band     7 # energy   10.25298099 # occ.  0.00000000
 
ion      s     py     pz     px    dxy    dyz    dz2    dxz  x2-y2    tot
    1  0.000  0.000  0.165  0.001  0.000  0.000  0.000  0.000  0.000  0.166
    2  0.000  0.000  0.002  0.164  0.000  0.000  0.000  0.000  0.000  0.166
tot    0.000  0.000  0.167  0.165  0.000  0.000  0.000  0.000  0.000  0.332
 
band     8 # energy   10.25298205 # occ.  0.00000000
 
ion      s     py     pz     px    dxy    dyz    dz2    dxz  x2-y2    tot
    1  0.000  0.000  0.001  0.165  0.000  0.000  0.000  0.000  0.000  0.166
    2  0.000  0.000  0.164  0.002  0.000  0.000  0.000  0.000  0.000  0.166
tot    0.000  0.000  0.165  0.167  0.000  0.000  0.000  0.000  0.000  0.332
 

 k-point    11 :    0.20833333 0.00000000 0.20833333     weight = 0.00400000

band     1 # energy   -5.45750728 # occ.  2.00000000
 
ion      s     py     pz     px    dxy    dyz    dz2    dxz  x2-y2    tot
    1  0.208  0.008  0.000  0.000  0.000  0.000  0.000  0.000  0.000  0.216
    2  0.208  0.008  0.000  0.000  0.000  0.000  0.000  0.000  0.000  0.216