-------------------Job starts at-------------------
 8:49:27 Jan-29-2025
---------------------------------------------------

Lmod is automatically replacing "gcc/12.3" with "intel/2023.2.1".


Due to MODULEPATH changes, the following have been reloaded:
  1) flexiblas/3.3.1     2) openmpi/4.1.5

Lmod Warning:  Please use the version of VASP compiled with Intel MPI, as the
version with openmpi-4.1.5 exhibits a memory leak, resulting in continuously
increasing memory usage at runtime.

   Veuillez utiliser la version de VASP compilée avec Intel MPI, car la
version avec openmpi-4.1.5 présente une fuite de mémoire, entraînant une
augmentation continue de l'utilisation de la mémoire pendant l'exécution. 
While processing the following module(s):
    Module fullname  Module Filename
    ---------------  ---------------
    vasp/6.4.2       /cvmfs/soft.computecanada.ca/easybuild/modules/2023/x86-64-v3/MPI/intel2023/openmpi4/vasp/6.4.2.lua

 running    4 mpi-ranks, on    1 nodes
 distrk:  each k-point on    4 cores,    1 groups
 distr:  one band on    1 cores,    4 groups
 vasp.6.4.2 20Jul23 (build Oct 16 2024 22:45:58) complex                        
  
 POSCAR found type information on POSCAR Si
 POSCAR found :  1 types and       2 ions
 Reading from existing POTCAR
 scaLAPACK will be used
 Reading from existing POTCAR
 LDA part: xc-table for Pade appr. of Perdew
 POSCAR found type information on POSCAR Si
 POSCAR found :  1 types and       2 ions
 WARNING: stress and forces are not correct
 POSCAR, INCAR and KPOINTS ok, starting setup
 FFT: planning ... GRIDC
 FFT: planning ... GRID_SOFT
 FFT: planning ... GRID
 WAVECAR not read
 charge-density read from file: Si                                      
 WARNING: random wavefunctions but no delay for mixing, default for NELMDL
 entering main loop
       N       E                     dE             d eps       ncg     rms          rms(c)
DAV:   1     0.540378232077E+01    0.54038E+01   -0.32549E+03  4000   0.771E+02
DAV:   2    -0.107912362089E+02   -0.16195E+02   -0.15579E+02  6000   0.781E+01
DAV:   3    -0.110382790734E+02   -0.24704E+00   -0.24704E+00  5280   0.116E+01
DAV:   4    -0.110393737837E+02   -0.10947E-02   -0.10947E-02  6544   0.821E-01
DAV:   5    -0.110393754541E+02   -0.16704E-05   -0.16704E-05  5304   0.232E-02
DAV:   6    -0.110393754737E+02   -0.19595E-07   -0.19596E-07  6600   0.158E-03
DAV:   7    -0.110393754737E+02   -0.29672E-10   -0.29581E-10  5544   0.544E-05
   1 F= -.11039375E+02 E0= -.11039375E+02  d E =-.559345E-20
--------------------Job ends at--------------------
 8:50:04 Jan-29-2025
---------------------------------------------------
