<?xml version="1.0" encoding="ISO-8859-1"?>
<modeling>
 <generator>
  <i name="program" type="string">vasp </i>
  <i name="version" type="string">6.4.2  </i>
  <i name="subversion" type="string">20Jul23 (build Oct 16 2024 22:45:58) complex                          parallel </i>
  <i name="platform" type="string">LinuxIFC </i>
  <i name="date" type="string">2025 01 29 </i>
  <i name="time" type="string">08:49:39 </i>
 </generator>
 <incar>
  <i type="string" name="SYSTEM">Si FCC</i>
  <i type="string" name="PREC">Accurate</i>
  <i type="int" name="ICHARG">    11</i>
  <i type="int" name="IBRION">    -1</i>
  <i name="EDIFF">      0.00000000</i>
  <i name="EDIFFG">     -0.00001000</i>
  <i type="int" name="NSW">     0</i>
  <i type="int" name="ISIF">     0</i>
  <i name="ENCUT">    520.00000000</i>
  <i type="int" name="ISMEAR">     0</i>
  <i name="SIGMA">      0.03000000</i>
  <i type="logical" name="LWAVE"> F  </i>
  <i type="int" name="LORBIT">    11</i>
  <i type="string" name="GGA">PE</i>
 </incar>
 <primitive_cell>
  <structure name="primitive_cell" >
   <crystal>
    <varray name="basis" >
     <v>       0.00000000       2.73429199       2.73429199 </v>
     <v>       2.73429199       0.00000000       2.73429199 </v>
     <v>       2.73429199       2.73429199       0.00000000 </v>
    </varray>
    <i name="volume">     40.88506259 </i>
    <varray name="rec_basis" >
     <v>      -0.18286269       0.18286269       0.18286269 </v>
     <v>       0.18286269      -0.18286269       0.18286269 </v>
     <v>       0.18286269       0.18286269      -0.18286269 </v>
    </varray>
   </crystal>
   <varray name="positions" >
    <v>       0.00000000       0.00000000       0.00000000 </v>
    <v>       0.25000000       0.25000000       0.25000000 </v>
   </varray>
  </structure>
  <varray name="primitive_index" >
   <v type="int" >        1 </v>
   <v type="int" >        2 </v>
  </varray>
 </primitive_cell>
 <kpoints>
  <generation param="listgenerated">
   <i name="divisions" type="int">      25 </i>
   <v>       0.00000000       0.00000000       0.00000000 </v>
   <v>       0.50000000       0.00000000       0.50000000 </v>
   <v>       0.50000000       0.25000000       0.75000000 </v>
   <v>       0.37500000       0.37500000       0.75000000 </v>
   <v>       0.00000000       0.00000000       0.00000000 </v>
   <v>       0.50000000       0.50000000       0.50000000 </v>
   <v>       0.62500000       0.25000000       0.62500000 </v>
   <v>       0.50000000       0.25000000       0.75000000 </v>
   <v>       0.50000000       0.50000000       0.50000000 </v>
   <v>       0.62500000       0.25000000       0.62500000 </v>
   <v>       0.50000000       0.00000000       0.50000000 </v>
  </generation>
  <varray name="kpointlist" >
   <v>       0.00000000       0.00000000       0.00000000 </v>
   <v>       0.02083333       0.00000000       0.02083333 </v>
   <v>       0.04166667       0.00000000       0.04166667 </v>
   <v>       0.06250000       0.00000000       0.06250000 </v>
   <v>       0.08333333       0.00000000       0.08333333 </v>
   <v>       0.10416667       0.00000000       0.10416667 </v>
   <v>       0.12500000       0.00000000       0.12500000 </v>
   <v>       0.14583333       0.00000000       0.14583333 </v>
   <v>       0.16666667       0.00000000       0.16666667 </v>
   <v>       0.18750000       0.00000000       0.18750000 </v>
   <v>       0.20833333       0.00000000       0.20833333 </v>
   <v>       0.22916667       0.00000000       0.22916667 </v>
   <v>       0.25000000       0.00000000       0.25000000 </v>
   <v>       0.27083333       0.00000000       0.27083333 </v>
   <v>       0.29166667       0.00000000       0.29166667 </v>
   <v>       0.31250000       0.00000000       0.31250000 </v>
   <v>       0.33333333       0.00000000       0.33333333 </v>
   <v>       0.35416667       0.00000000       0.35416667 </v>
   <v>       0.37500000       0.00000000       0.37500000 </v>
   <v>       0.39583333       0.00000000       0.39583333 </v>
   <v>       0.41666667       0.00000000       0.41666667 </v>
   <v>       0.43750000       0.00000000       0.43750000 </v>
   <v>       0.45833333       0.00000000       0.45833333 </v>
   <v>       0.47916667       0.00000000       0.47916667 </v>
   <v>       0.50000000       0.00000000       0.50000000 </v>
   <v>       0.50000000       0.00000000       0.50000000 </v>
   <v>       0.50000000       0.01041667       0.51041667 </v>
   <v>       0.50000000       0.02083333       0.52083333 </v>
   <v>       0.50000000       0.03125000       0.53125000 </v>
   <v>       0.50000000       0.04166667       0.54166667 </v>
   <v>       0.50000000       0.05208333       0.55208333 </v>
   <v>       0.50000000       0.06250000       0.56250000 </v>
   <v>       0.50000000       0.07291667       0.57291667 </v>
   <v>       0.50000000       0.08333333       0.58333333 </v>
   <v>       0.50000000       0.09375000       0.59375000 </v>
   <v>       0.50000000       0.10416667       0.60416667 </v>
   <v>       0.50000000       0.11458333       0.61458333 </v>
   <v>       0.50000000       0.12500000       0.62500000 </v>
   <v>       0.50000000       0.13541667       0.63541667 </v>
   <v>       0.50000000       0.14583333       0.64583333 </v>
   <v>       0.50000000       0.15625000       0.65625000 </v>
   <v>       0.50000000       0.16666667       0.66666667 </v>
   <v>       0.50000000       0.17708333       0.67708333 </v>
   <v>       0.50000000       0.18750000       0.68750000 </v>
   <v>       0.50000000       0.19791667       0.69791667 </v>
   <v>       0.50000000       0.20833333       0.70833333 </v>
   <v>       0.50000000       0.21875000       0.71875000 </v>
   <v>       0.50000000       0.22916667       0.72916667 </v>
   <v>       0.50000000       0.23958333       0.73958333 </v>
   <v>       0.50000000       0.25000000       0.75000000 </v>
   <v>       0.50000000       0.25000000       0.75000000 </v>
   <v>       0.49479167       0.25520833       0.75000000 </v>
   <v>       0.48958333       0.26041667       0.75000000 </v>
   <v>       0.48437500       0.26562500       0.75000000 </v>
   <v>       0.47916667       0.27083333       0.75000000 </v>
   <v>       0.47395833       0.27604167       0.75000000 </v>
   <v>       0.46875000       0.28125000       0.75000000 </v>
   <v>       0.46354167       0.28645833       0.75000000 </v>
   <v>       0.45833333       0.29166667       0.75000000 </v>
   <v>       0.45312500       0.29687500       0.75000000 </v>
   <v>       0.44791667       0.30208333       0.75000000 </v>
   <v>       0.44270833       0.30729167       0.75000000 </v>
   <v>       0.43750000       0.31250000       0.75000000 </v>
   <v>       0.43229167       0.31770833       0.75000000 </v>
   <v>       0.42708333       0.32291667       0.75000000 </v>
   <v>       0.42187500       0.32812500       0.75000000 </v>
   <v>       0.41666667       0.33333333       0.75000000 </v>
   <v>       0.41145833       0.33854167       0.75000000 </v>
   <v>       0.40625000       0.34375000       0.75000000 </v>
   <v>       0.40104167       0.34895833       0.75000000 </v>
   <v>       0.39583333       0.35416667       0.75000000 </v>
   <v>       0.39062500       0.35937500       0.75000000 </v>
   <v>       0.38541667       0.36458333       0.75000000 </v>
   <v>       0.38020833       0.36979167       0.75000000 </v>
   <v>       0.37500000       0.37500000       0.75000000 </v>
   <v>       0.37500000       0.37500000       0.75000000 </v>
   <v>       0.35937500       0.35937500       0.71875000 </v>
   <v>       0.34375000       0.34375000       0.68750000 </v>
   <v>       0.32812500       0.32812500       0.65625000 </v>
   <v>       0.31250000       0.31250000       0.62500000 </v>
   <v>       0.29687500       0.29687500       0.59375000 </v>
   <v>       0.28125000       0.28125000       0.56250000 </v>
   <v>       0.26562500       0.26562500       0.53125000 </v>
   <v>       0.25000000       0.25000000       0.50000000 </v>
   <v>       0.23437500       0.23437500       0.46875000 </v>
   <v>       0.21875000       0.21875000       0.43750000 </v>
   <v>       0.20312500       0.20312500       0.40625000 </v>
   <v>       0.18750000       0.18750000       0.37500000 </v>
   <v>       0.17187500       0.17187500       0.34375000 </v>
   <v>       0.15625000       0.15625000       0.31250000 </v>
   <v>       0.14062500       0.14062500       0.28125000 </v>
   <v>       0.12500000       0.12500000       0.25000000 </v>
   <v>       0.10937500       0.10937500       0.21875000 </v>
   <v>       0.09375000       0.09375000       0.18750000 </v>
   <v>       0.07812500       0.07812500       0.15625000 </v>
   <v>       0.06250000       0.06250000       0.12500000 </v>
   <v>       0.04687500       0.04687500       0.09375000 </v>
   <v>       0.03125000       0.03125000       0.06250000 </v>
   <v>       0.01562500       0.01562500       0.03125000 </v>
   <v>       0.00000000       0.00000000       0.00000000 </v>
   <v>       0.00000000       0.00000000       0.00000000 </v>
   <v>       0.02083333       0.02083333       0.02083333 </v>
   <v>       0.04166667       0.04166667       0.04166667 </v>
   <v>       0.06250000       0.06250000       0.06250000 </v>
   <v>       0.08333333       0.08333333       0.08333333 </v>
   <v>       0.10416667       0.10416667       0.10416667 </v>
   <v>       0.12500000       0.12500000       0.12500000 </v>
   <v>       0.14583333       0.14583333       0.14583333 </v>
   <v>       0.16666667       0.16666667       0.16666667 </v>
   <v>       0.18750000       0.18750000       0.18750000 </v>
   <v>       0.20833333       0.20833333       0.20833333 </v>
   <v>       0.22916667       0.22916667       0.22916667 </v>
   <v>       0.25000000       0.25000000       0.25000000 </v>
   <v>       0.27083333       0.27083333       0.27083333 </v>
   <v>       0.29166667       0.29166667       0.29166667 </v>
   <v>       0.31250000       0.31250000       0.31250000 </v>
   <v>       0.33333333       0.33333333       0.33333333 </v>
   <v>       0.35416667       0.35416667       0.35416667 </v>
   <v>       0.37500000       0.37500000       0.37500000 </v>
   <v>       0.39583333       0.39583333       0.39583333 </v>
   <v>       0.41666667       0.41666667       0.41666667 </v>
   <v>       0.43750000       0.43750000       0.43750000 </v>
   <v>       0.45833333       0.45833333       0.45833333 </v>
   <v>       0.47916667       0.47916667       0.47916667 </v>
   <v>       0.50000000       0.50000000       0.50000000 </v>
   <v>       0.50000000       0.50000000       0.50000000 </v>
   <v>       0.50520833       0.48958333       0.50520833 </v>
   <v>       0.51041667       0.47916667       0.51041667 </v>
   <v>       0.51562500       0.46875000       0.51562500 </v>
   <v>       0.52083333       0.45833333       0.52083333 </v>
   <v>       0.52604167       0.44791667       0.52604167 </v>
   <v>       0.53125000       0.43750000       0.53125000 </v>
   <v>       0.53645833       0.42708333       0.53645833 </v>
   <v>       0.54166667       0.41666667       0.54166667 </v>
   <v>       0.54687500       0.40625000       0.54687500 </v>
   <v>       0.55208333       0.39583333       0.55208333 </v>
   <v>       0.55729167       0.38541667       0.55729167 </v>
   <v>       0.56250000       0.37500000       0.56250000 </v>
   <v>       0.56770833       0.36458333       0.56770833 </v>
   <v>       0.57291667       0.35416667       0.57291667 </v>
   <v>       0.57812500       0.34375000       0.57812500 </v>
   <v>       0.58333333       0.33333333       0.58333333 </v>
   <v>       0.58854167       0.32291667       0.58854167 </v>
   <v>       0.59375000       0.31250000       0.59375000 </v>
   <v>       0.59895833       0.30208333       0.59895833 </v>
   <v>       0.60416667       0.29166667       0.60416667 </v>
   <v>       0.60937500       0.28125000       0.60937500 </v>
   <v>       0.61458333       0.27083333       0.61458333 </v>
   <v>       0.61979167       0.26041667       0.61979167 </v>
   <v>       0.62500000       0.25000000       0.62500000 </v>
   <v>       0.62500000       0.25000000       0.62500000 </v>
   <v>       0.61979167       0.25000000       0.63020833 </v>
   <v>       0.61458333       0.25000000       0.63541667 </v>
   <v>       0.60937500       0.25000000       0.64062500 </v>
   <v>       0.60416667       0.25000000       0.64583333 </v>
   <v>       0.59895833       0.25000000       0.65104167 </v>
   <v>       0.59375000       0.25000000       0.65625000 </v>
   <v>       0.58854167       0.25000000       0.66145833 </v>
   <v>       0.58333333       0.25000000       0.66666667 </v>
   <v>       0.57812500       0.25000000       0.67187500 </v>
   <v>       0.57291667       0.25000000       0.67708333 </v>
   <v>       0.56770833       0.25000000       0.68229167 </v>
   <v>       0.56250000       0.25000000       0.68750000 </v>
   <v>       0.55729167       0.25000000       0.69270833 </v>
   <v>       0.55208333       0.25000000       0.69791667 </v>
   <v>       0.54687500       0.25000000       0.70312500 </v>
   <v>       0.54166667       0.25000000       0.70833333 </v>
   <v>       0.53645833       0.25000000       0.71354167 </v>
   <v>       0.53125000       0.25000000       0.71875000 </v>
   <v>       0.52604167       0.25000000       0.72395833 </v>
   <v>       0.52083333       0.25000000       0.72916667 </v>
   <v>       0.51562500       0.25000000       0.73437500 </v>
   <v>       0.51041667       0.25000000       0.73958333 </v>
   <v>       0.50520833       0.25000000       0.74479167 </v>
   <v>       0.50000000       0.25000000       0.75000000 </v>
   <v>       0.50000000       0.25000000       0.75000000 </v>
   <v>       0.50000000       0.26041667       0.73958333 </v>
   <v>       0.50000000       0.27083333       0.72916667 </v>
   <v>       0.50000000       0.28125000       0.71875000 </v>
   <v>       0.50000000       0.29166667       0.70833333 </v>
   <v>       0.50000000       0.30208333       0.69791667 </v>
   <v>       0.50000000       0.31250000       0.68750000 </v>
   <v>       0.50000000       0.32291667       0.67708333 </v>
   <v>       0.50000000       0.33333333       0.66666667 </v>
   <v>       0.50000000       0.34375000       0.65625000 </v>
   <v>       0.50000000       0.35416667       0.64583333 </v>
   <v>       0.50000000       0.36458333       0.63541667 </v>
   <v>       0.50000000       0.37500000       0.62500000 </v>
   <v>       0.50000000       0.38541667       0.61458333 </v>
   <v>       0.50000000       0.39583333       0.60416667 </v>
   <v>       0.50000000       0.40625000       0.59375000 </v>
   <v>       0.50000000       0.41666667       0.58333333 </v>
   <v>       0.50000000       0.42708333       0.57291667 </v>
   <v>       0.50000000       0.43750000       0.56250000 </v>
   <v>       0.50000000       0.44791667       0.55208333 </v>
   <v>       0.50000000       0.45833333       0.54166667 </v>
   <v>       0.50000000       0.46875000       0.53125000 </v>
   <v>       0.50000000       0.47916667       0.52083333 </v>
   <v>       0.50000000       0.48958333       0.51041667 </v>
   <v>       0.50000000       0.50000000       0.50000000 </v>
   <v>       0.50000000       0.50000000       0.50000000 </v>
   <v>       0.49479167       0.49479167       0.51041667 </v>
   <v>       0.48958333       0.48958333       0.52083333 </v>
   <v>       0.48437500       0.48437500       0.53125000 </v>
   <v>       0.47916667       0.47916667       0.54166667 </v>
   <v>       0.47395833       0.47395833       0.55208333 </v>
   <v>       0.46875000       0.46875000       0.56250000 </v>
   <v>       0.46354167       0.46354167       0.57291667 </v>
   <v>       0.45833333       0.45833333       0.58333333 </v>
   <v>       0.45312500       0.45312500       0.59375000 </v>
   <v>       0.44791667       0.44791667       0.60416667 </v>
   <v>       0.44270833       0.44270833       0.61458333 </v>
   <v>       0.43750000       0.43750000       0.62500000 </v>
   <v>       0.43229167       0.43229167       0.63541667 </v>
   <v>       0.42708333       0.42708333       0.64583333 </v>
   <v>       0.42187500       0.42187500       0.65625000 </v>
   <v>       0.41666667       0.41666667       0.66666667 </v>
   <v>       0.41145833       0.41145833       0.67708333 </v>
   <v>       0.40625000       0.40625000       0.68750000 </v>
   <v>       0.40104167       0.40104167       0.69791667 </v>
   <v>       0.39583333       0.39583333       0.70833333 </v>
   <v>       0.39062500       0.39062500       0.71875000 </v>
   <v>       0.38541667       0.38541667       0.72916667 </v>
   <v>       0.38020833       0.38020833       0.73958333 </v>
   <v>       0.37500000       0.37500000       0.75000000 </v>
   <v>       0.62500000       0.25000000       0.62500000 </v>
   <v>       0.61979167       0.23958333       0.61979167 </v>
   <v>       0.61458333       0.22916667       0.61458333 </v>
   <v>       0.60937500       0.21875000       0.60937500 </v>
   <v>       0.60416667       0.20833333       0.60416667 </v>
   <v>       0.59895833       0.19791667       0.59895833 </v>
   <v>       0.59375000       0.18750000       0.59375000 </v>
   <v>       0.58854167       0.17708333       0.58854167 </v>
   <v>       0.58333333       0.16666667       0.58333333 </v>
   <v>       0.57812500       0.15625000       0.57812500 </v>
   <v>       0.57291667       0.14583333       0.57291667 </v>
   <v>       0.56770833       0.13541667       0.56770833 </v>
   <v>       0.56250000       0.12500000       0.56250000 </v>
   <v>       0.55729167       0.11458333       0.55729167 </v>
   <v>       0.55208333       0.10416667       0.55208333 </v>
   <v>       0.54687500       0.09375000       0.54687500 </v>
   <v>       0.54166667       0.08333333       0.54166667 </v>
   <v>       0.53645833       0.07291667       0.53645833 </v>
   <v>       0.53125000       0.06250000       0.53125000 </v>
   <v>       0.52604167       0.05208333       0.52604167 </v>
   <v>       0.52083333       0.04166667       0.52083333 </v>
   <v>       0.51562500       0.03125000       0.51562500 </v>
   <v>       0.51041667       0.02083333       0.51041667 </v>
   <v>       0.50520833       0.01041667       0.50520833 </v>
   <v>       0.50000000       0.00000000       0.50000000 </v>
  </varray>
  <varray name="weights" >
   <v>       0.00400000 </v>
   <v>       0.00400000 </v>
   <v>       0.00400000 </v>
   <v>       0.00400000 </v>
   <v>       0.00400000 </v>
   <v>       0.00400000 </v>
   <v>       0.00400000 </v>
   <v>       0.00400000 </v>
   <v>       0.00400000 </v>
   <v>       0.00400000 </v>
   <v>       0.00400000 </v>
   <v>       0.00400000 </v>
   <v>       0.00400000 </v>
   <v>       0.00400000 </v>
   <v>       0.00400000 </v>
   <v>       0.00400000 </v>
   <v>       0.00400000 </v>
   <v>       0.00400000 </v>
   <v>       0.00400000 </v>
   <v>       0.00400000 </v>
   <v>       0.00400000 </v>
   <v>       0.00400000 </v>
   <v>       0.00400000 </v>
   <v>       0.00400000 </v>
   <v>       0.00400000 </v>
   <v>       0.00400000 </v>
   <v>       0.00400000 </v>
   <v>       0.00400000 </v>
   <v>       0.00400000 </v>
   <v>       0.00400000 </v>
   <v>       0.00400000 </v>
   <v>       0.00400000 </v>
   <v>       0.00400000 </v>
   <v>       0.00400000 </v>
   <v>       0.00400000 </v>
   <v>       0.00400000 </v>
   <v>       0.00400000 </v>
   <v>       0.00400000 </v>
   <v>       0.00400000 </v>
   <v>       0.00400000 </v>
   <v>       0.00400000 </v>
   <v>       0.00400000 </v>
   <v>       0.00400000 </v>
   <v>       0.00400000 </v>
   <v>       0.00400000 </v>
   <v>       0.00400000 </v>
   <v>       0.00400000 </v>
   <v>       0.00400000 </v>
   <v>       0.00400000 </v>
   <v>       0.00400000 </v>
   <v>       0.00400000 </v>
   <v>       0.00400000 </v>
   <v>       0.00400000 </v>
   <v>       0.00400000 </v>
   <v>       0.00400000 </v>
   <v>       0.00400000 </v>
   <v>       0.00400000 </v>
   <v>       0.00400000 </v>
   <v>       0.00400000 </v>
   <v>       0.00400000 </v>
   <v>       0.00400000 </v>
   <v>       0.00400000 </v>
   <v>       0.00400000 </v>
   <v>       0.00400000 </v>
   <v>       0.00400000 </v>
   <v>       0.00400000 </v>
   <v>       0.00400000 </v>
   <v>       0.00400000 </v>
   <v>       0.00400000 </v>
   <v>       0.00400000 </v>
   <v>       0.00400000 </v>
   <v>       0.00400000 </v>
   <v>       0.00400000 </v>
   <v>       0.00400000 </v>
   <v>       0.00400000 </v>
   <v>       0.00400000 </v>
   <v>       0.00400000 </v>
   <v>       0.00400000 </v>
   <v>       0.00400000 </v>
   <v>       0.00400000 </v>
   <v>       0.00400000 </v>
   <v>       0.00400000 </v>
   <v>       0.00400000 </v>
   <v>       0.00400000 </v>
   <v>       0.00400000 </v>
   <v>       0.00400000 </v>
   <v>       0.00400000 </v>
   <v>       0.00400000 </v>
   <v>       0.00400000 </v>
   <v>       0.00400000 </v>
   <v>       0.00400000 </v>
   <v>       0.00400000 </v>
   <v>       0.00400000 </v>
   <v>       0.00400000 </v>
   <v>       0.00400000 </v>
   <v>       0.00400000 </v>
   <v>       0.00400000 </v>
   <v>       0.00400000 </v>
   <v>       0.00400000 </v>
   <v>       0.00400000 </v>
   <v>       0.00400000 </v>
   <v>       0.00400000 </v>
   <v>       0.00400000 </v>
   <v>       0.00400000 </v>
   <v>       0.00400000 </v>
   <v>       0.00400000 </v>
   <v>       0.00400000 </v>
   <v>       0.00400000 </v>
   <v>       0.00400000 </v>
   <v>       0.00400000 </v>
   <v>       0.00400000 </v>
   <v>       0.00400000 </v>
   <v>       0.00400000 </v>
   <v>       0.00400000 </v>
   <v>       0.00400000 </v>
   <v>       0.00400000 </v>
   <v>       0.00400000 </v>
   <v>       0.00400000 </v>
   <v>       0.00400000 </v>
   <v>       0.00400000 </v>
   <v>       0.00400000 </v>
   <v>       0.00400000 </v>
   <v>       0.00400000 </v>
   <v>       0.00400000 </v>
   <v>       0.00400000 </v>
   <v>       0.00400000 </v>
   <v>       0.00400000 </v>
   <v>       0.00400000 </v>
   <v>       0.00400000 </v>
   <v>       0.00400000 </v>
   <v>       0.00400000 </v>
   <v>       0.00400000 </v>
   <v>       0.00400000 </v>
   <v>       0.00400000 </v>
   <v>       0.00400000 </v>
   <v>       0.00400000 </v>
   <v>       0.00400000 </v>
   <v>       0.00400000 </v>
   <v>       0.00400000 </v>
   <v>       0.00400000 </v>
   <v>       0.00400000 </v>
   <v>       0.00400000 </v>
   <v>       0.00400000 </v>
   <v>       0.00400000 </v>
   <v>       0.00400000 </v>
   <v>       0.00400000 </v>
   <v>       0.00400000 </v>
   <v>       0.00400000 </v>
   <v>       0.00400000 </v>
   <v>       0.00400000 </v>
   <v>       0.00400000 </v>
   <v>       0.00400000 </v>
   <v>       0.00400000 </v>
   <v>       0.00400000 </v>
   <v>       0.00400000 </v>
   <v>       0.00400000 </v>
   <v>       0.00400000 </v>
   <v>       0.00400000 </v>
   <v>       0.00400000 </v>
   <v>       0.00400000 </v>
   <v>       0.00400000 </v>
   <v>       0.00400000 </v>
   <v>       0.00400000 </v>
   <v>       0.00400000 </v>
   <v>       0.00400000 </v>
   <v>       0.00400000 </v>
   <v>       0.00400000 </v>
   <v>       0.00400000 </v>
   <v>       0.00400000 </v>
   <v>       0.00400000 </v>
   <v>       0.00400000 </v>
   <v>       0.00400000 </v>
   <v>       0.00400000 </v>
   <v>       0.00400000 </v>
   <v>       0.00400000 </v>
   <v>       0.00400000 </v>
   <v>       0.00400000 </v>
   <v>       0.00400000 </v>
   <v>       0.00400000 </v>
   <v>       0.00400000 </v>
   <v>       0.00400000 </v>
   <v>       0.00400000 </v>
   <v>       0.00400000 </v>
   <v>       0.00400000 </v>
   <v>       0.00400000 </v>
   <v>       0.00400000 </v>
   <v>       0.00400000 </v>
   <v>       0.00400000 </v>
   <v>       0.00400000 </v>
   <v>       0.00400000 </v>
   <v>       0.00400000 </v>
   <v>       0.00400000 </v>
   <v>       0.00400000 </v>
   <v>       0.00400000 </v>
   <v>       0.00400000 </v>
   <v>       0.00400000 </v>
   <v>       0.00400000 </v>
   <v>       0.00400000 </v>
   <v>       0.00400000 </v>
   <v>       0.00400000 </v>
   <v>       0.00400000 </v>
   <v>       0.00400000 </v>
   <v>       0.00400000 </v>
   <v>       0.00400000 </v>
   <v>       0.00400000 </v>
   <v>       0.00400000 </v>
   <v>       0.00400000 </v>
   <v>       0.00400000 </v>
   <v>       0.00400000 </v>
   <v>       0.00400000 </v>
   <v>       0.00400000 </v>
   <v>       0.00400000 </v>
   <v>       0.00400000 </v>
   <v>       0.00400000 </v>
   <v>       0.00400000 </v>
   <v>       0.00400000 </v>
   <v>       0.00400000 </v>
   <v>       0.00400000 </v>
   <v>       0.00400000 </v>
   <v>       0.00400000 </v>
   <v>       0.00400000 </v>
   <v>       0.00400000 </v>
   <v>       0.00400000 </v>
   <v>       0.00400000 </v>
   <v>       0.00400000 </v>
   <v>       0.00400000 </v>
   <v>       0.00400000 </v>
   <v>       0.00400000 </v>
   <v>       0.00400000 </v>
   <v>       0.00400000 </v>
   <v>       0.00400000 </v>
   <v>       0.00400000 </v>
   <v>       0.00400000 </v>
   <v>       0.00400000 </v>
   <v>       0.00400000 </v>
   <v>       0.00400000 </v>
   <v>       0.00400000 </v>
   <v>       0.00400000 </v>
   <v>       0.00400000 </v>
   <v>       0.00400000 </v>
   <v>       0.00400000 </v>
   <v>       0.00400000 </v>
   <v>       0.00400000 </v>
   <v>       0.00400000 </v>
   <v>       0.00400000 </v>
   <v>       0.00400000 </v>
   <v>       0.00400000 </v>
   <v>       0.00400000 </v>
   <v>       0.00400000 </v>
   <v>       0.00400000 </v>
  </varray>
  <kpoints_labels>
   <i name="G" type="int">       1 </i>
   <i name="X" type="int">       2 </i>
   <i name="X" type="int">       3 </i>
   <i name="W" type="int">       4 </i>
   <i name="W" type="int">       5 </i>
   <i name="K" type="int">       6 </i>
   <i name="K" type="int">       7 </i>
   <i name="G" type="int">       8 </i>
   <i name="G" type="int">       9 </i>
   <i name="L" type="int">      10 </i>
   <i name="L" type="int">      11 </i>
   <i name="U" type="int">      12 </i>
   <i name="U" type="int">      13 </i>
   <i name="W" type="int">      14 </i>
   <i name="W" type="int">      15 </i>
   <i name="L" type="int">      16 </i>
   <i name="L" type="int">      17 </i>
   <i name="K" type="int">      18 </i>
   <i name="U" type="int">      19 </i>
   <i name="X" type="int">      20 </i>
  </kpoints_labels>
 </kpoints>
 <parameters>
  <separator name="general" >
   <i type="string" name="SYSTEM">Si FCC</i>
   <i type="logical" name="LCOMPAT"> F  </i>
  </separator>
  <separator name="electronic" >
   <i type="string" name="PREC">accura</i>
   <i name="ENMAX">    520.00000000</i>
   <i name="ENAUG">    322.06900000</i>
   <i name="EDIFF">      0.00000000</i>
   <i type="int" name="IALGO">    38</i>
   <i type="int" name="IWAVPR">    10</i>
   <i type="int" name="NBANDS">     8</i>
   <i type="int" name="NBANDSLOW">    -1</i>
   <i type="int" name="NBANDSHIGH">    -1</i>
   <i name="NELECT">      8.00000000</i>
   <i type="int" name="TURBO">     0</i>
   <i type="int" name="IRESTART">     0</i>
   <i type="int" name="NREBOOT">     0</i>
   <i type="int" name="NMIN">     0</i>
   <i name="EREF">      0.00000000</i>
   <separator name="electronic smearing" >
    <i type="int" name="ISMEAR">     0</i>
    <i name="SIGMA">      0.03000000</i>
    <i name="KSPACING">      0.50000000</i>
    <i type="logical" name="KGAMMA"> T  </i>
    <i type="logical" name="KBLOWUP"> T  </i>
   </separator>
   <separator name="electronic projectors" >
    <i type="logical" name="LREAL"> F  </i>
    <v name="ROPT">      0.00000000</v>
    <i type="int" name="LMAXPAW">  -100</i>
    <i type="int" name="LMAXMIX">     2</i>
    <i type="logical" name="NLSPLINE"> F  </i>
   </separator>
   <separator name="electronic startup" >
    <i type="int" name="ISTART">     0</i>
    <i type="int" name="ICHARG">    11</i>
    <i type="int" name="INIWAV">     1</i>
   </separator>
   <separator name="electronic spin" >
    <i type="int" name="ISPIN">     1</i>
    <i type="logical" name="LNONCOLLINEAR"> F  </i>
    <v name="MAGMOM">      1.00000000      1.00000000</v>
    <i name="NUPDOWN">     -1.00000000</i>
    <i type="logical" name="LSORBIT"> F  </i>
    <v name="SAXIS">      0.00000000      0.00000000      1.00000000</v>
    <i type="logical" name="LSPIRAL"> F  </i>
    <v name="QSPIRAL">      0.00000000      0.00000000      0.00000000</v>
    <i type="logical" name="LZEROZ"> F  </i>
   </separator>
   <separator name="electronic exchange-correlation" >
    <i type="logical" name="LASPH"> F  </i>
    <i type="logical" name="LMETAGGA"> F  </i>
   </separator>
   <separator name="electronic convergence" >
    <i type="int" name="NELM">    60</i>
    <i type="int" name="NELMDL">     0</i>
    <i type="int" name="NELMIN">     2</i>
    <i name="ENINI">    520.00000000</i>
    <separator name="electronic convergence detail" >
     <i type="logical" name="LDIAG"> T  </i>
     <i type="logical" name="LSUBROT"> F  </i>
     <i name="WEIMIN">      0.00000000</i>
     <i name="EBREAK">      0.00000000</i>
     <i name="DEPER">      0.30000000</i>
     <i type="int" name="NRMM">     4</i>
     <i name="TIME">      0.40000000</i>
    </separator>
   </separator>
   <separator name="electronic mixer" >
    <i name="AMIX">      0.40000000</i>
    <i name="BMIX">      1.00000000</i>
    <i name="AMIN">      0.10000000</i>
    <i name="AMIX_MAG">      1.60000000</i>
    <i name="BMIX_MAG">      1.00000000</i>
    <separator name="electronic mixer details" >
     <i type="int" name="IMIX">     4</i>
     <i type="logical" name="MIXFIRST"> F  </i>
     <i type="int" name="MAXMIX">   -45</i>
     <i name="WC">    100.00000000</i>
     <i type="int" name="INIMIX">     1</i>
     <i type="int" name="MIXPRE">     1</i>
     <i type="int" name="MREMOVE">     5</i>
    </separator>
   </separator>
   <separator name="electronic dipolcorrection" >
    <i type="logical" name="LDIPOL"> F  </i>
    <i type="logical" name="LMONO"> F  </i>
    <i type="int" name="IDIPOL">     0</i>
    <i name="EPSILON">      1.00000000</i>
    <v name="DIPOL">   -100.00000000   -100.00000000   -100.00000000</v>
    <i name="EFIELD">      0.00000000</i>
   </separator>
  </separator>
  <separator name="grids" >
   <i type="int" name="NGX">    30</i>
   <i type="int" name="NGY">    30</i>
   <i type="int" name="NGZ">    30</i>
   <i type="int" name="NGXF">    60</i>
   <i type="int" name="NGYF">    60</i>
   <i type="int" name="NGZF">    60</i>
   <i type="logical" name="ADDGRID"> F  </i>
  </separator>
  <separator name="ionic" >
   <i type="int" name="NSW">     0</i>
   <i type="int" name="IBRION">    -1</i>
   <i type="int" name="MDALGO">     0</i>
   <i type="int" name="ISIF">     0</i>
   <i name="PSTRESS">      0.00000000</i>
   <i name="EDIFFG">     -0.00001000</i>
   <i type="int" name="NFREE">     0</i>
   <i name="POTIM">      0.50000000</i>
   <i name="SMASS">     -3.00000000</i>
   <i name="SCALEE">      1.00000000</i>
  </separator>
  <separator name="ionic md" >
   <i name="TEBEG">      0.00010000</i>
   <i name="TEEND">      0.00010000</i>
   <i type="int" name="NBLOCK">     1</i>
   <i type="int" name="KBLOCK">     1</i>
   <i type="int" name="NPACO">   256</i>
   <i name="APACO">     10.00000000</i>
  </separator>
  <separator name="symmetry" >
   <i type="int" name="ISYM">     2</i>
   <i name="SYMPREC">      0.00001000</i>
  </separator>
  <separator name="dos" >
   <i type="int" name="LORBIT">    11</i>
   <v name="RWIGS">     -1.00000000</v>
   <i type="int" name="NEDOS">   301</i>
   <i name="EMIN">     10.00000000</i>
   <i name="EMAX">    -10.00000000</i>
   <i name="EFERMI">      0.00000000</i>
  </separator>
  <separator name="writing" >
   <i type="int" name="NWRITE">     2</i>
   <i type="logical" name="LWAVE"> F  </i>
   <i type="logical" name="LDOWNSAMPLE"> F  </i>
   <i type="logical" name="LCHARG"> T  </i>
   <i type="logical" name="LPARD"> F  </i>
   <i type="logical" name="LVTOT"> F  </i>
   <i type="logical" name="LVHAR"> F  </i>
   <i type="logical" name="LELF"> F  </i>
   <i type="logical" name="LOPTICS"> F  </i>
   <v name="STM">      0.00000000      0.00000000      0.00000000      0.00000000      0.00000000      0.00000000      0.00000000</v>
  </separator>
  <separator name="performance" >
   <i type="int" name="NPAR">     4</i>
   <i type="int" name="NSIM">     4</i>
   <i type="int" name="NBLK">    -1</i>
   <i type="logical" name="LPLANE"> T  </i>
   <i type="logical" name="LSCALAPACK"> T  </i>
   <i type="logical" name="LSCAAWARE"> F  </i>
   <i type="logical" name="LSCALU"> F  </i>
   <i type="logical" name="LASYNC"> F  </i>
   <i type="logical" name="LORBITALREAL"> F  </i>
  </separator>
  <separator name="miscellaneous" >
   <i type="int" name="IDIOT">     3</i>
   <i type="int" name="PHON_NSTRUCT">    -1</i>
   <i type="logical" name="LMUSIC"> F  </i>
   <v name="POMASS">     28.08500000</v>
   <v name="DARWINR">      0.00000000</v>
   <v name="DARWINV">      1.00000000</v>
   <i type="logical" name="LCORR"> T  </i>
  </separator>
  <i type="logical" name="GGA_COMPAT"> T  </i>
  <i type="logical" name="LBERRY"> F  </i>
  <i type="int" name="ICORELEVEL">     0</i>
  <i type="logical" name="LDAU"> F  </i>
  <i type="int" name="I_CONSTRAINED_M">     0</i>
  <separator name="electronic exchange-correlation" >
   <i type="string" name="GGA">PE</i>
   <i type="int" name="VOSKOWN">     0</i>
   <i type="logical" name="LHFCALC"> F  </i>
   <i type="string" name="PRECFOCK"></i>
   <i type="logical" name="LSYMGRAD"> F  </i>
   <i type="logical" name="LHFONE"> F  </i>
   <i type="logical" name="LRHFCALC"> F  </i>
   <i type="logical" name="LTHOMAS"> F  </i>
   <i type="logical" name="LMODELHF"> F  </i>
   <i type="logical" name="LFOCKACE"> F  </i>
   <i name="ENCUT4O">     -1.00000000</i>
   <i type="int" name="EXXOEP">     0</i>
   <i type="int" name="FOURORBIT">     0</i>
   <i name="AEXX">      0.00000000</i>
   <i name="HFALPHA">      0.00000000</i>
   <i name="MCALPHA">      0.00000000</i>
   <i name="ALDAX">      1.00000000</i>
   <i name="AGGAX">      1.00000000</i>
   <i name="ALDAC">      1.00000000</i>
   <i name="AGGAC">      1.00000000</i>
   <i type="int" name="NKREDX">     1</i>
   <i type="int" name="NKREDY">     1</i>
   <i type="int" name="NKREDZ">     1</i>
   <i type="logical" name="SHIFTRED"> F  </i>
   <i type="logical" name="ODDONLY"> F  </i>
   <i type="logical" name="EVENONLY"> F  </i>
   <i type="int" name="LMAXFOCK">     0</i>
   <i type="int" name="NMAXFOCKAE">     0</i>
   <i type="logical" name="LFOCKAEDFT"> F  </i>
   <i name="HFSCREEN">      0.00000000</i>
   <i name="HFSCREENC">      0.00000000</i>
   <i type="int" name="NBANDSGWLOW">     0</i>
  </separator>
  <separator name="vdW DFT" >
   <i type="logical" name="LUSE_VDW"> F  </i>
   <i type="int" name="IVDW_NL">     1</i>
   <i type="logical" name="LSPIN_VDW"> F  </i>
   <i name="Zab_VDW">     -0.84910000</i>
   <i name="PARAM1">      0.12340000</i>
   <i name="PARAM2">      1.00000000</i>
   <i name="PARAM3">      0.00000000</i>
  </separator>
  <separator name="model GW" >
   <i type="int" name="MODEL_GW">     0</i>
   <i name="MODEL_EPS0">     12.26551878</i>
   <i name="MODEL_ALPHA">      1.00000000</i>
  </separator>
  <separator name="linear response parameters" >
   <i type="logical" name="LEPSILON"> F  </i>
   <i type="logical" name="LRPA"> F  </i>
   <i type="logical" name="LNABLA"> F  </i>
   <i type="logical" name="LVEL"> F  </i>
   <i name="CSHIFT">      0.10000000</i>
   <i name="OMEGAMAX">     -1.00000000</i>
   <i name="DEG_THRESHOLD">      0.00200000</i>
   <i name="RTIME">     -0.10000000</i>
   <i name="WPLASMAI">      0.00000000</i>
   <v name="DFIELD">      0.00000000      0.00000000      0.00000000</v>
   <v name="WPLASMA">      0.00000000      0.00000000      0.00000000      0.00000000      0.00000000      0.00000000      0.00000000      0.00000000      0.00000000</v>
  </separator>
  <separator name="orbital magnetization" >
   <i type="logical" name="NUCIND"> F  </i>
   <v name="MAGPOS">      0.00000000      0.00000000      0.00000000</v>
   <i type="logical" name="LNICSALL"> T  </i>
   <i type="logical" name="ORBITALMAG"> F  </i>
   <i type="logical" name="LMAGBLOCH"> F  </i>
   <i type="logical" name="LCHIMAG"> F  </i>
   <i type="logical" name="LGAUGE"> T  </i>
   <i type="int" name="MAGATOM">     0</i>
   <v name="MAGDIPOL">      0.00000000      0.00000000      0.00000000</v>
   <v name="AVECCONST">      0.00000000      0.00000000      0.00000000</v>
  </separator>
  <separator name="response functions" >
   <i type="logical" name="LALL_IN_ONE"> F  </i>
   <i type="int" name="IALL_IN_ONE">    -1</i>
   <i type="int" name="NBANDS_WAVE">    -1</i>
   <i type="logical" name="LFINITE_TEMPERATURE"> F  </i>
   <i type="logical" name="LADDER"> F  </i>
   <i type="logical" name="LRPAFORCE"> F  </i>
   <i type="logical" name="LFXC"> F  </i>
   <i type="logical" name="LHARTREE"> T  </i>
   <i type="int" name="IBSE">     0</i>
   <v type="int" name="KPOINT">    -1     0     0     0</v>
   <i type="logical" name="LTCTC"> F  </i>
   <i type="logical" name="LTCTE"> F  </i>
   <i type="logical" name="LTETE"> F  </i>
   <i type="logical" name="LTRIPLET"> F  </i>
   <i type="logical" name="LFXCEPS"> F  </i>
   <i type="logical" name="LFXHEG"> F  </i>
   <i type="int" name="NATURALO">     2</i>
   <i type="logical" name="LHOLEGF"> F  </i>
   <i type="logical" name="L2ORDER"> F  </i>
   <i type="logical" name="LDMP1"> F  </i>
   <i type="logical" name="LMP2LT"> F  </i>
   <i type="logical" name="LSMP2LT"> F  </i>
   <i type="logical" name="LGWLF"> F  </i>
   <i name="ENCUTGW">     -1.60000002</i>
   <i name="ENCUTGWSOFT">     -1.60000002</i>
   <i name="ENCUTLF">     -1.00000000</i>
   <i type="logical" name="LESF_SPLINES"> F  </i>
   <i type="int" name="LMAXMP2">    -1</i>
   <i name="SCISSOR">      0.00000000</i>
   <i type="int" name="NOMEGA">     0</i>
   <i type="int" name="NOMEGAR">     0</i>
   <i type="int" name="NBANDSGW">    -1</i>
   <i type="int" name="NBANDSO">    -1</i>
   <i type="int" name="NBANDSV">    -1</i>
   <i type="int" name="NELMGW">     1</i>
   <i type="int" name="NELMHF">     1</i>
   <i type="int" name="DIM">     3</i>
   <i type="int" name="IESPILON">     4</i>
   <i type="int" name="ANTIRES">     0</i>
   <i name="OMEGAMAX">    -30.00000000</i>
   <i name="OMEGAMIN">    -30.00000000</i>
   <i name="OMEGATL">   -200.00000000</i>
   <i type="int" name="OMEGAGRID">     0</i>
   <i name="CSHIFT">     -0.10000000</i>
   <i type="logical" name="LSELFENERGY"> F  </i>
   <i type="logical" name="LSPECTRAL"> F  </i>
   <i type="logical" name="LSPECTRALGW"> F  </i>
   <i type="logical" name="LSINGLES"> F  </i>
   <i type="logical" name="LFERMIGW"> F  </i>
   <i type="logical" name="ODDONLYGW"> F  </i>
   <i type="logical" name="EVENONLYGW"> F  </i>
   <i type="int" name="NKREDLFX">     1</i>
   <i type="int" name="NKREDLFY">     1</i>
   <i type="int" name="NKREDLFZ">     1</i>
   <i type="int" name="MAXMEM">  2800</i>
   <i type="int" name="TELESCOPE">     0</i>
   <i type="int" name="NTAUPAR">    -1</i>
   <i type="int" name="NOMEGAPAR">    -1</i>
   <i name="DAMP_NEWTON">      0.80000001</i>
   <i name="LAMBDA">      1.00000000</i>
  </separator>
  <separator name="External order field" >
   <i name="OFIELD_KAPPA">      0.00000000</i>
   <v name="OFIELD_K">      0.00000000      0.00000000      0.00000000</v>
   <i name="OFIELD_Q6_NEAR">      0.00000000</i>
   <i name="OFIELD_Q6_FAR">      0.00000000</i>
   <i name="OFIELD_A">      0.00000000</i>
  </separator>
  <separator name="optional k-points parameters" >
   <i type="int" name="KPOINTS_OPT_MODE">     1</i>
   <i type="logical" name="LKPOINTS_OPT"> F  </i>
  </separator>
  <separator name="solvation model" >
   <i type="logical" name="LSOL"> F  </i>
  </separator>
 </parameters>
 <atominfo>
  <atoms>       2 </atoms>
  <types>       1 </types>
  <array name="atoms" >
   <dimension dim="1">ion</dimension>
   <field type="string">element</field>
   <field type="int">atomtype</field>
   <set>
    <rc><c>Si</c><c>   1</c></rc>
    <rc><c>Si</c><c>   1</c></rc>
   </set>
  </array>
  <array name="atomtypes" >
   <dimension dim="1">type</dimension>
   <field type="int">atomspertype</field>
   <field type="string">element</field>
   <field>mass</field>
   <field>valence</field>
   <field type="string">pseudopotential</field>
   <set>
    <rc><c>   2</c><c>Si</c><c>     28.08500000</c><c>      4.00000000</c><c>  PAW_PBE Si 05Jan2001                  </c></rc>
   </set>
  </array>
 </atominfo>
 <structure name="initialpos" >
  <crystal>
   <varray name="basis" >
    <v>       0.00000000       2.73429199       2.73429199 </v>
    <v>       2.73429199       0.00000000       2.73429199 </v>
    <v>       2.73429199       2.73429199       0.00000000 </v>
   </varray>
   <i name="volume">     40.88506259 </i>
   <varray name="rec_basis" >
    <v>      -0.18286269       0.18286269       0.18286269 </v>
    <v>       0.18286269      -0.18286269       0.18286269 </v>
    <v>       0.18286269       0.18286269      -0.18286269 </v>
   </varray>
  </crystal>
  <varray name="positions" >
   <v>       0.00000000       0.00000000       0.00000000 </v>
   <v>       0.25000000       0.25000000       0.25000000 </v>
  </varray>
 </structure>
 <calculation>
  <scstep>
   <time name="dav">    2.29    2.31</time>
   <time name="total">    2.33    2.35</time>
   <energy>
    <i name="alphaZ">      3.29344055 </i>
    <i name="ewald">   -226.95087875 </i>
    <i name="hartreedc">    -15.17283579 </i>
    <i name="XCdc">    -18.05999103 </i>
    <i name="pawpsdc">    829.90302202 </i>
    <i name="pawaedc">   -794.92195543 </i>
    <i name="eentropy">     -0.00025918 </i>
    <i name="bandstr">     21.18053720 </i>
    <i name="atom">    206.13270273 </i>
    <i name="e_fr_energy">      5.40378232 </i>
    <i name="e_wo_entrp">      5.40404150 </i>
    <i name="e_0_energy">      5.40391191 </i>
   </energy>
  </scstep>
  <scstep>
   <time name="dav">    3.09    3.11</time>
   <time name="total">    3.09    3.11</time>
   <energy>
    <i name="e_fr_energy">    -10.79123621 </i>
    <i name="e_wo_entrp">    -10.79123621 </i>
    <i name="e_0_energy">    -10.79123621 </i>
   </energy>
  </scstep>
  <scstep>
   <time name="dav">    2.81    2.85</time>
   <time name="total">    2.81    2.85</time>
   <energy>
    <i name="e_fr_energy">    -11.03827907 </i>
    <i name="e_wo_entrp">    -11.03827907 </i>
    <i name="e_0_energy">    -11.03827907 </i>
   </energy>
  </scstep>
  <scstep>
   <time name="dav">    3.35    3.50</time>
   <time name="total">    3.35    3.50</time>
   <energy>
    <i name="e_fr_energy">    -11.03937378 </i>
    <i name="e_wo_entrp">    -11.03937378 </i>
    <i name="e_0_energy">    -11.03937378 </i>
   </energy>
  </scstep>
  <scstep>
   <time name="dav">    2.82    2.84</time>
   <time name="total">    2.82    2.85</time>
   <energy>
    <i name="e_fr_energy">    -11.03937545 </i>
    <i name="e_wo_entrp">    -11.03937545 </i>
    <i name="e_0_energy">    -11.03937545 </i>
   </energy>
  </scstep>
  <scstep>
   <time name="dav">    3.35    3.41</time>
   <time name="total">    3.36    3.41</time>
   <energy>
    <i name="e_fr_energy">    -11.03937547 </i>
    <i name="e_wo_entrp">    -11.03937547 </i>
    <i name="e_0_energy">    -11.03937547 </i>
   </energy>
  </scstep>
  <scstep>
   <time name="dav">    3.02    3.05</time>
   <time name="total">    3.02    3.05</time>
   <energy>
    <i name="alphaZ">      3.29344055 </i>
    <i name="ewald">   -226.95087875 </i>
    <i name="hartreedc">    -15.17283579 </i>
    <i name="XCdc">    -18.05999103 </i>
    <i name="pawpsdc">    829.90302202 </i>
    <i name="pawaedc">   -794.92195543 </i>
    <i name="eentropy">     -0.00000000 </i>
    <i name="bandstr">      4.73712023 </i>
    <i name="atom">    206.13270273 </i>
    <i name="e_fr_energy">    -11.03937547 </i>
    <i name="e_wo_entrp">    -11.03937547 </i>
    <i name="e_0_energy">    -11.03937547 </i>
   </energy>
  </scstep>
  <structure>
   <crystal>
    <varray name="basis" >
     <v>       0.00000000       2.73429199       2.73429199 </v>
     <v>       2.73429199       0.00000000       2.73429199 </v>
     <v>       2.73429199       2.73429199       0.00000000 </v>
    </varray>
    <i name="volume">     40.88506259 </i>
    <varray name="rec_basis" >
     <v>      -0.18286269       0.18286269       0.18286269 </v>
     <v>       0.18286269      -0.18286269       0.18286269 </v>
     <v>       0.18286269       0.18286269      -0.18286269 </v>
    </varray>
   </crystal>
   <varray name="positions" >
    <v>       0.00000000       0.00000000       0.00000000 </v>
    <v>       0.25000000       0.25000000       0.25000000 </v>
   </varray>
  </structure>
  <varray name="forces" >
   <v>      -0.00000000       0.00000000       0.00000000 </v>
   <v>       0.00000000      -0.00000000      -0.00000000 </v>
  </varray>
  <energy>
   <i name="e_fr_energy">    -11.03937547 </i>
   <i name="e_wo_entrp">    -11.03937547 </i>
   <i name="e_0_energy">    -11.03937547 </i>
  </energy>
  <time name="totalsc">   21.42   21.83</time>
  <eigenvalues>
   <array>
    <dimension dim="1">band</dimension>
    <dimension dim="2">kpoint</dimension>
    <dimension dim="3">spin</dimension>
    <field>eigene</field>
    <field>occ</field>
    <set>
     <set comment="spin 1">
      <set comment="kpoint 1">
       <r>   -6.1982    1.0000 </r>
       <r>    5.6170    1.0000 </r>
       <r>    5.6170    1.0000 </r>
       <r>    5.6170    1.0000 </r>
       <r>    8.1739    0.0000 </r>
       <r>    8.1739    0.0000 </r>
       <r>    8.1739    0.0000 </r>
       <r>    8.7518    0.0000 </r>
      </set>
      <set comment="kpoint 2">
       <r>   -6.1908    1.0000 </r>
       <r>    5.5630    1.0000 </r>
       <r>    5.5851    1.0000 </r>
       <r>    5.5851    1.0000 </r>
       <r>    8.1553    0.0000 </r>
       <r>    8.2149    0.0000 </r>
       <r>    8.2149    0.0000 </r>
       <r>    8.8047    0.0000 </r>
      </set>
      <set comment="kpoint 3">
       <r>   -6.1684    1.0000 </r>
       <r>    5.4113    1.0000 </r>
       <r>    5.4954    1.0000 </r>
       <r>    5.4954    1.0000 </r>
       <r>    8.1011    0.0000 </r>
       <r>    8.3322    0.0000 </r>
       <r>    8.3322    0.0000 </r>
       <r>    8.9518    0.0000 </r>
      </set>
      <set comment="kpoint 4">
       <r>   -6.1311    1.0000 </r>
       <r>    5.1852    1.0000 </r>
       <r>    5.3616    1.0000 </r>
       <r>    5.3616    1.0000 </r>
       <r>    8.0157    0.0000 </r>
       <r>    8.5119    0.0000 </r>
       <r>    8.5119    0.0000 </r>
       <r>    9.1651    0.0000 </r>
      </set>
      <set comment="kpoint 5">
       <r>   -6.0789    1.0000 </r>
       <r>    4.9079    1.0000 </r>
       <r>    5.1986    1.0000 </r>
       <r>    5.1986    1.0000 </r>
       <r>    7.9048    0.0000 </r>
       <r>    8.7390    0.0000 </r>
       <r>    8.7390    0.0000 </r>
       <r>    9.4111    0.0000 </r>
      </set>
      <set comment="kpoint 6">
       <r>   -6.0119    1.0000 </r>
       <r>    4.5973    1.0000 </r>
       <r>    5.0186    1.0000 </r>
       <r>    5.0186    1.0000 </r>
       <r>    7.7750    0.0000 </r>
       <r>    9.0010    0.0000 </r>
       <r>    9.0010    0.0000 </r>
       <r>    9.6519    0.0000 </r>
      </set>
      <set comment="kpoint 7">
       <r>   -5.9302    1.0000 </r>
       <r>    4.2650    1.0000 </r>
       <r>    4.8304    1.0000 </r>
       <r>    4.8304    1.0000 </r>
       <r>    7.6326    0.0000 </r>
       <r>    9.2889    0.0000 </r>
       <r>    9.2889    0.0000 </r>
       <r>    9.8380    0.0000 </r>
      </set>
      <set comment="kpoint 8">
       <r>   -5.8337    1.0000 </r>
       <r>    3.9186    1.0000 </r>
       <r>    4.6402    1.0000 </r>
       <r>    4.6402    1.0000 </r>
       <r>    7.4832    0.0000 </r>
       <r>    9.5963    0.0000 </r>
       <r>    9.5963    0.0000 </r>
       <r>    9.9085    0.0000 </r>
      </set>
      <set comment="kpoint 9">
       <r>   -5.7227    1.0000 </r>
       <r>    3.5630    1.0000 </r>
       <r>    4.4521    1.0000 </r>
       <r>    4.4521    1.0000 </r>
       <r>    7.3315    0.0000 </r>
       <r>    9.8286    0.0000 </r>
       <r>    9.9187    0.0000 </r>
       <r>    9.9187    0.0000 </r>
      </set>
      <set comment="kpoint 10">
       <r>   -5.5973    1.0000 </r>
       <r>    3.2014    1.0000 </r>
       <r>    4.2691    1.0000 </r>
       <r>    4.2691    1.0000 </r>
       <r>    7.1813    0.0000 </r>
       <r>    9.6269    0.0000 </r>
       <r>   10.2530    0.0000 </r>
       <r>   10.2530    0.0000 </r>
      </set>
      <set comment="kpoint 11">
       <r>   -5.4575    1.0000 </r>
       <r>    2.8358    1.0000 </r>
       <r>    4.0932    1.0000 </r>
       <r>    4.0932    1.0000 </r>
       <r>    7.0358    0.0000 </r>
       <r>    9.3572    0.0000 </r>
       <r>   10.5968    0.0000 </r>
       <r>   10.5968    0.0000 </r>
      </set>
      <set comment="kpoint 12">
       <r>   -5.3036    1.0000 </r>
       <r>    2.4679    1.0000 </r>
       <r>    3.9259    1.0000 </r>
       <r>    3.9259    1.0000 </r>
       <r>    6.8976    0.0000 </r>
       <r>    9.0585    0.0000 </r>
       <r>   10.9486    0.0000 </r>
       <r>   10.9486    0.0000 </r>
      </set>
      <set comment="kpoint 13">
       <r>   -5.1356    1.0000 </r>
       <r>    2.0987    1.0000 </r>
       <r>    3.7683    1.0000 </r>
       <r>    3.7683    1.0000 </r>
       <r>    6.7686    0.0000 </r>
       <r>    8.7529    0.0000 </r>
       <r>   11.3069    0.0000 </r>
       <r>   11.3069    0.0000 </r>
      </set>
      <set comment="kpoint 14">
       <r>   -4.9539    1.0000 </r>
       <r>    1.7292    1.0000 </r>
       <r>    3.6213    1.0000 </r>
       <r>    3.6213    1.0000 </r>
       <r>    6.6506    0.0000 </r>
       <r>    8.4526    0.0000 </r>
       <r>   11.6709    0.0000 </r>
       <r>   11.6709    0.0000 </r>
      </set>
      <set comment="kpoint 15">
       <r>   -4.7586    1.0000 </r>
       <r>    1.3602    1.0000 </r>
       <r>    3.4856    1.0000 </r>
       <r>    3.4856    1.0000 </r>
       <r>    6.5449    0.0000 </r>
       <r>    8.1642    0.0000 </r>
       <r>   12.0397    0.0000 </r>
       <r>   12.0397    0.0000 </r>
      </set>
      <set comment="kpoint 16">
       <r>   -4.5499    1.0000 </r>
       <r>    0.9925    1.0000 </r>
       <r>    3.3617    1.0000 </r>
       <r>    3.3617    1.0000 </r>
       <r>    6.4529    0.0000 </r>
       <r>    7.8921    0.0000 </r>
       <r>   12.4130    0.0000 </r>
       <r>   12.4130    0.0000 </r>
      </set>
      <set comment="kpoint 17">
       <r>   -4.3282    1.0000 </r>
       <r>    0.6268    1.0000 </r>
       <r>    3.2499    1.0000 </r>
       <r>    3.2499    1.0000 </r>
       <r>    6.3754    0.0000 </r>
       <r>    7.6386    0.0000 </r>
       <r>   12.7902    0.0000 </r>
       <r>   12.7902    0.0000 </r>
      </set>
      <set comment="kpoint 18">
       <r>   -4.0938    1.0000 </r>
       <r>    0.2640    1.0000 </r>
       <r>    3.1507    1.0000 </r>
       <r>    3.1507    1.0000 </r>
       <r>    6.3133    0.0000 </r>
       <r>    7.4052    0.0000 </r>
       <r>   13.1710    0.0000 </r>
       <r>   13.1710    0.0000 </r>
      </set>
      <set comment="kpoint 19">
       <r>   -3.8470    1.0000 </r>
       <r>   -0.0952    1.0000 </r>
       <r>    3.0642    1.0000 </r>
       <r>    3.0642    1.0000 </r>
       <r>    6.2674    0.0000 </r>
       <r>    7.1929    0.0000 </r>
       <r>   13.5547    0.0000 </r>
       <r>   13.5547    0.0000 </r>
      </set>
      <set comment="kpoint 20">
       <r>   -3.5882    1.0000 </r>
       <r>   -0.4499    1.0000 </r>
       <r>    2.9907    1.0000 </r>
       <r>    2.9907    1.0000 </r>
       <r>    6.2385    0.0000 </r>
       <r>    7.0020    0.0000 </r>
       <r>   13.9406    0.0000 </r>
       <r>   13.9406    0.0000 </r>
      </set>
      <set comment="kpoint 21">
       <r>   -3.3177    1.0000 </r>
       <r>   -0.7994    1.0000 </r>
       <r>    2.9304    1.0000 </r>
       <r>    2.9304    1.0000 </r>
       <r>    6.2271    0.0000 </r>
       <r>    6.8327    0.0000 </r>
       <r>   14.3269    0.0000 </r>
       <r>   14.3269    0.0000 </r>
      </set>
      <set comment="kpoint 22">
       <r>   -3.0361    1.0000 </r>
       <r>   -1.1429    1.0000 </r>
       <r>    2.8834    1.0000 </r>
       <r>    2.8834    1.0000 </r>
       <r>    6.2338    0.0000 </r>
       <r>    6.6850    0.0000 </r>
       <r>   14.7096    0.0000 </r>
       <r>   14.7096    0.0000 </r>
      </set>
      <set comment="kpoint 23">
       <r>   -2.7438    1.0000 </r>
       <r>   -1.4795    1.0000 </r>
       <r>    2.8497    1.0000 </r>
       <r>    2.8497    1.0000 </r>
       <r>    6.2593    0.0000 </r>
       <r>    6.5586    0.0000 </r>
       <r>   15.0787    0.0000 </r>
       <r>   15.0787    0.0000 </r>
      </set>
      <set comment="kpoint 24">
       <r>   -2.4414    1.0000 </r>
       <r>   -1.8086    1.0000 </r>
       <r>    2.8295    1.0000 </r>
       <r>    2.8295    1.0000 </r>
       <r>    6.3040    0.0000 </r>
       <r>    6.4532    0.0000 </r>
       <r>   15.4002    0.0000 </r>
       <r>   15.4002    0.0000 </r>
      </set>
      <set comment="kpoint 25">
       <r>   -2.1295    1.0000 </r>
       <r>   -2.1295    1.0000 </r>
       <r>    2.8227    1.0000 </r>
       <r>    2.8227    1.0000 </r>
       <r>    6.3685    0.0000 </r>
       <r>    6.3685    0.0000 </r>
       <r>   15.5542    0.0000 </r>
       <r>   15.5547    0.0000 </r>
      </set>
      <set comment="kpoint 26">
       <r>   -2.1295    1.0000 </r>
       <r>   -2.1295    1.0000 </r>
       <r>    2.8227    1.0000 </r>
       <r>    2.8227    1.0000 </r>
       <r>    6.3685    0.0000 </r>
       <r>    6.3685    0.0000 </r>
       <r>   15.5543    0.0000 </r>
       <r>   15.5548    0.0000 </r>
      </set>
      <set comment="kpoint 27">
       <r>   -2.1289    1.0000 </r>
       <r>   -2.1289    1.0000 </r>
       <r>    2.8171    1.0000 </r>
       <r>    2.8171    1.0000 </r>
       <r>    6.3789    0.0000 </r>
       <r>    6.3789    0.0000 </r>
       <r>   15.5381    0.0000 </r>
       <r>   15.5415    0.0000 </r>
      </set>
      <set comment="kpoint 28">
       <r>   -2.1270    1.0000 </r>
       <r>   -2.1270    1.0000 </r>
       <r>    2.8005    1.0000 </r>
       <r>    2.8005    1.0000 </r>
       <r>    6.4097    0.0000 </r>
       <r>    6.4097    0.0000 </r>
       <r>   15.4872    0.0000 </r>
       <r>   15.4873    0.0000 </r>
      </set>
      <set comment="kpoint 29">
       <r>   -2.1241    1.0000 </r>
       <r>   -2.1241    1.0000 </r>
       <r>    2.7736    1.0000 </r>
       <r>    2.7736    1.0000 </r>
       <r>    6.4603    0.0000 </r>
       <r>    6.4603    0.0000 </r>
       <r>   15.3966    0.0000 </r>
       <r>   15.3970    0.0000 </r>
      </set>
      <set comment="kpoint 30">
       <r>   -2.1199    1.0000 </r>
       <r>   -2.1199    1.0000 </r>
       <r>    2.7374    1.0000 </r>
       <r>    2.7374    1.0000 </r>
       <r>    6.5297    0.0000 </r>
       <r>    6.5297    0.0000 </r>
       <r>   15.2633    0.0000 </r>
       <r>   15.2634    0.0000 </r>
      </set>
      <set comment="kpoint 31">
       <r>   -2.1147    1.0000 </r>
       <r>   -2.1147    1.0000 </r>
       <r>    2.6932    1.0000 </r>
       <r>    2.6932    1.0000 </r>
       <r>    6.6166    0.0000 </r>
       <r>    6.6166    0.0000 </r>
       <r>   15.0899    0.0000 </r>
       <r>   15.0900    0.0000 </r>
      </set>
      <set comment="kpoint 32">
       <r>   -2.1085    1.0000 </r>
       <r>   -2.1085    1.0000 </r>
       <r>    2.6424    1.0000 </r>
       <r>    2.6424    1.0000 </r>
       <r>    6.7197    0.0000 </r>
       <r>    6.7197    0.0000 </r>
       <r>   14.8846    0.0000 </r>
       <r>   14.8846    0.0000 </r>
      </set>
      <set comment="kpoint 33">
       <r>   -2.1013    1.0000 </r>
       <r>   -2.1013    1.0000 </r>
       <r>    2.5866    1.0000 </r>
       <r>    2.5866    1.0000 </r>
       <r>    6.8375    0.0000 </r>
       <r>    6.8375    0.0000 </r>
       <r>   14.6565    0.0000 </r>
       <r>   14.6565    0.0000 </r>
      </set>
      <set comment="kpoint 34">
       <r>   -2.0934    1.0000 </r>
       <r>   -2.0934    1.0000 </r>
       <r>    2.5271    1.0000 </r>
       <r>    2.5271    1.0000 </r>
       <r>    6.9687    0.0000 </r>
       <r>    6.9687    0.0000 </r>
       <r>   14.4131    0.0000 </r>
       <r>   14.4131    0.0000 </r>
      </set>
      <set comment="kpoint 35">
       <r>   -2.0847    1.0000 </r>
       <r>   -2.0847    1.0000 </r>
       <r>    2.4653    1.0000 </r>
       <r>    2.4653    1.0000 </r>
       <r>    7.1119    0.0000 </r>
       <r>    7.1119    0.0000 </r>
       <r>   14.1596    0.0000 </r>
       <r>   14.1596    0.0000 </r>
      </set>
      <set comment="kpoint 36">
       <r>   -2.0754    1.0000 </r>
       <r>   -2.0754    1.0000 </r>
       <r>    2.4023    1.0000 </r>
       <r>    2.4023    1.0000 </r>
       <r>    7.2661    0.0000 </r>
       <r>    7.2661    0.0000 </r>
       <r>   13.8996    0.0000 </r>
       <r>   13.8996    0.0000 </r>
      </set>
      <set comment="kpoint 37">
       <r>   -2.0657    1.0000 </r>
       <r>   -2.0657    1.0000 </r>
       <r>    2.3394    1.0000 </r>
       <r>    2.3394    1.0000 </r>
       <r>    7.4302    0.0000 </r>
       <r>    7.4302    0.0000 </r>
       <r>   13.6357    0.0000 </r>
       <r>   13.6357    0.0000 </r>
      </set>
      <set comment="kpoint 38">
       <r>   -2.0557    1.0000 </r>
       <r>   -2.0557    1.0000 </r>
       <r>    2.2776    1.0000 </r>
       <r>    2.2776    1.0000 </r>
       <r>    7.6032    0.0000 </r>
       <r>    7.6032    0.0000 </r>
       <r>   13.3696    0.0000 </r>
       <r>   13.3696    0.0000 </r>
      </set>
      <set comment="kpoint 39">
       <r>   -2.0456    1.0000 </r>
       <r>   -2.0456    1.0000 </r>
       <r>    2.2176    1.0000 </r>
       <r>    2.2176    1.0000 </r>
       <r>    7.7842    0.0000 </r>
       <r>    7.7842    0.0000 </r>
       <r>   13.1026    0.0000 </r>
       <r>   13.1026    0.0000 </r>
      </set>
      <set comment="kpoint 40">
       <r>   -2.0355    1.0000 </r>
       <r>   -2.0355    1.0000 </r>
       <r>    2.1604    1.0000 </r>
       <r>    2.1604    1.0000 </r>
       <r>    7.9726    0.0000 </r>
       <r>    7.9726    0.0000 </r>
       <r>   12.8357    0.0000 </r>
       <r>   12.8357    0.0000 </r>
      </set>
      <set comment="kpoint 41">
       <r>   -2.0257    1.0000 </r>
       <r>   -2.0257    1.0000 </r>
       <r>    2.1066    1.0000 </r>
       <r>    2.1066    1.0000 </r>
       <r>    8.1677    0.0000 </r>
       <r>    8.1677    0.0000 </r>
       <r>   12.5697    0.0000 </r>
       <r>   12.5697    0.0000 </r>
      </set>
      <set comment="kpoint 42">
       <r>   -2.0162    1.0000 </r>
       <r>   -2.0162    1.0000 </r>
       <r>    2.0568    1.0000 </r>
       <r>    2.0568    1.0000 </r>
       <r>    8.3687    0.0000 </r>
       <r>    8.3687    0.0000 </r>
       <r>   12.3053    0.0000 </r>
       <r>   12.3053    0.0000 </r>
      </set>
      <set comment="kpoint 43">
       <r>   -2.0074    1.0000 </r>
       <r>   -2.0074    1.0000 </r>
       <r>    2.0116    1.0000 </r>
       <r>    2.0116    1.0000 </r>
       <r>    8.5749    0.0000 </r>
       <r>    8.5749    0.0000 </r>
       <r>   12.0433    0.0000 </r>
       <r>   12.0433    0.0000 </r>
      </set>
      <set comment="kpoint 44">
       <r>   -1.9993    1.0000 </r>
       <r>   -1.9993    1.0000 </r>
       <r>    1.9715    1.0000 </r>
       <r>    1.9715    1.0000 </r>
       <r>    8.7855    0.0000 </r>
       <r>    8.7855    0.0000 </r>
       <r>   11.7843    0.0000 </r>
       <r>   11.7843    0.0000 </r>
      </set>
      <set comment="kpoint 45">
       <r>   -1.9922    1.0000 </r>
       <r>   -1.9922    1.0000 </r>
       <r>    1.9368    1.0000 </r>
       <r>    1.9368    1.0000 </r>
       <r>    8.9995    0.0000 </r>
       <r>    8.9995    0.0000 </r>
       <r>   11.5295    0.0000 </r>
       <r>   11.5295    0.0000 </r>
      </set>
      <set comment="kpoint 46">
       <r>   -1.9861    1.0000 </r>
       <r>   -1.9861    1.0000 </r>
       <r>    1.9080    1.0000 </r>
       <r>    1.9080    1.0000 </r>
       <r>    9.2152    0.0000 </r>
       <r>    9.2152    0.0000 </r>
       <r>   11.2805    0.0000 </r>
       <r>   11.2805    0.0000 </r>
      </set>
      <set comment="kpoint 47">
       <r>   -1.9813    1.0000 </r>
       <r>   -1.9813    1.0000 </r>
       <r>    1.8853    1.0000 </r>
       <r>    1.8853    1.0000 </r>
       <r>    9.4293    0.0000 </r>
       <r>    9.4293    0.0000 </r>
       <r>   11.0405    0.0000 </r>
       <r>   11.0405    0.0000 </r>
      </set>
      <set comment="kpoint 48">
       <r>   -1.9777    1.0000 </r>
       <r>   -1.9777    1.0000 </r>
       <r>    1.8689    1.0000 </r>
       <r>    1.8689    1.0000 </r>
       <r>    9.6343    0.0000 </r>
       <r>    9.6343    0.0000 </r>
       <r>   10.8170    0.0000 </r>
       <r>   10.8170    0.0000 </r>
      </set>
      <set comment="kpoint 49">
       <r>   -1.9756    1.0000 </r>
       <r>   -1.9756    1.0000 </r>
       <r>    1.8590    1.0000 </r>
       <r>    1.8590    1.0000 </r>
       <r>    9.8083    0.0000 </r>
       <r>    9.8083    0.0000 </r>
       <r>   10.6319    0.0000 </r>
       <r>   10.6319    0.0000 </r>
      </set>
      <set comment="kpoint 50">
       <r>   -1.9748    1.0000 </r>
       <r>   -1.9748    1.0000 </r>
       <r>    1.8556    1.0000 </r>
       <r>    1.8556    1.0000 </r>
       <r>    9.8873    0.0000 </r>
       <r>    9.8873    0.0000 </r>
       <r>   10.5492    0.0000 </r>
       <r>   10.5492    0.0000 </r>
      </set>
      <set comment="kpoint 51">
       <r>   -1.9748    1.0000 </r>
       <r>   -1.9748    1.0000 </r>
       <r>    1.8556    1.0000 </r>
       <r>    1.8556    1.0000 </r>
       <r>    9.8873    0.0000 </r>
       <r>    9.8873    0.0000 </r>
       <r>   10.5492    0.0000 </r>
       <r>   10.5492    0.0000 </r>
      </set>
      <set comment="kpoint 52">
       <r>   -2.0211    1.0000 </r>
       <r>   -1.9292    1.0000 </r>
       <r>    1.8210    1.0000 </r>
       <r>    1.8936    1.0000 </r>
       <r>    9.8113    0.0000 </r>
       <r>    9.9154    0.0000 </r>
       <r>   10.5527    0.0000 </r>
       <r>   10.5975    0.0000 </r>
      </set>
      <set comment="kpoint 53">
       <r>   -2.0654    1.0000 </r>
       <r>   -1.8867    1.0000 </r>
       <r>    1.7877    1.0000 </r>
       <r>    1.9367    1.0000 </r>
       <r>    9.6750    0.0000 </r>
       <r>    9.9304    0.0000 </r>
       <r>   10.6211    0.0000 </r>
       <r>   10.6618    0.0000 </r>
      </set>
      <set comment="kpoint 54">
       <r>   -2.1078    1.0000 </r>
       <r>   -1.8474    1.0000 </r>
       <r>    1.7556    1.0000 </r>
       <r>    1.9851    1.0000 </r>
       <r>    9.5099    0.0000 </r>
       <r>    9.9349    0.0000 </r>
       <r>   10.7230    0.0000 </r>
       <r>   10.7396    0.0000 </r>
      </set>
      <set comment="kpoint 55">
       <r>   -2.1482    1.0000 </r>
       <r>   -1.8112    1.0000 </r>
       <r>    1.7248    1.0000 </r>
       <r>    2.0383    1.0000 </r>
       <r>    9.3332    0.0000 </r>
       <r>    9.9317    0.0000 </r>
       <r>   10.8278    0.0000 </r>
       <r>   10.8418    0.0000 </r>
      </set>
      <set comment="kpoint 56">
       <r>   -2.1867    1.0000 </r>
       <r>   -1.7780    1.0000 </r>
       <r>    1.6954    1.0000 </r>
       <r>    2.0962    1.0000 </r>
       <r>    9.1522    0.0000 </r>
       <r>    9.9233    0.0000 </r>
       <r>   10.9240    0.0000 </r>
       <r>   10.9699    0.0000 </r>
      </set>
      <set comment="kpoint 57">
       <r>   -2.2232    1.0000 </r>
       <r>   -1.7478    1.0000 </r>
       <r>    1.6674    1.0000 </r>
       <r>    2.1585    1.0000 </r>
       <r>    8.9708    0.0000 </r>
       <r>    9.9114    0.0000 </r>
       <r>   11.0264    0.0000 </r>
       <r>   11.1040    0.0000 </r>
      </set>
      <set comment="kpoint 58">
       <r>   -2.2578    1.0000 </r>
       <r>   -1.7204    1.0000 </r>
       <r>    1.6407    1.0000 </r>
       <r>    2.2247    1.0000 </r>
       <r>    8.7907    0.0000 </r>
       <r>    9.8975    0.0000 </r>
       <r>   11.1334    0.0000 </r>
       <r>   11.2423    0.0000 </r>
      </set>
      <set comment="kpoint 59">
       <r>   -2.2905    1.0000 </r>
       <r>   -1.6957    1.0000 </r>
       <r>    1.6155    1.0000 </r>
       <r>    2.2944    1.0000 </r>
       <r>    8.6133    0.0000 </r>
       <r>    9.8825    0.0000 </r>
       <r>   11.2441    0.0000 </r>
       <r>   11.3839    0.0000 </r>
      </set>
      <set comment="kpoint 60">
       <r>   -2.3211    1.0000 </r>
       <r>   -1.6736    1.0000 </r>
       <r>    1.5917    1.0000 </r>
       <r>    2.3672    1.0000 </r>
       <r>    8.4395    0.0000 </r>
       <r>    9.8670    0.0000 </r>
       <r>   11.3578    0.0000 </r>
       <r>   11.5281    0.0000 </r>
      </set>
      <set comment="kpoint 61">
       <r>   -2.3499    1.0000 </r>
       <r>   -1.6538    1.0000 </r>
       <r>    1.5693    1.0000 </r>
       <r>    2.4425    1.0000 </r>
       <r>    8.2701    0.0000 </r>
       <r>    9.8514    0.0000 </r>
       <r>   11.4739    0.0000 </r>
       <r>   11.6747    0.0000 </r>
      </set>
      <set comment="kpoint 62">
       <r>   -2.3766    1.0000 </r>
       <r>   -1.6363    1.0000 </r>
       <r>    1.5484    1.0000 </r>
       <r>    2.5196    1.0000 </r>
       <r>    8.1058    0.0000 </r>
       <r>    9.8362    0.0000 </r>
       <r>   11.5920    0.0000 </r>
       <r>   11.8232    0.0000 </r>
      </set>
      <set comment="kpoint 63">
       <r>   -2.4014    1.0000 </r>
       <r>   -1.6209    1.0000 </r>
       <r>    1.5290    1.0000 </r>
       <r>    2.5978    1.0000 </r>
       <r>    7.9472    0.0000 </r>
       <r>    9.8216    0.0000 </r>
       <r>   11.7116    0.0000 </r>
       <r>   11.9736    0.0000 </r>
      </set>
      <set comment="kpoint 64">
       <r>   -2.4242    1.0000 </r>
       <r>   -1.6073    1.0000 </r>
       <r>    1.5111    1.0000 </r>
       <r>    2.6763    1.0000 </r>
       <r>    7.7951    0.0000 </r>
       <r>    9.8077    0.0000 </r>
       <r>   11.8326    0.0000 </r>
       <r>   12.1256    0.0000 </r>
      </set>
      <set comment="kpoint 65">
       <r>   -2.4450    1.0000 </r>
       <r>   -1.5955    1.0000 </r>
       <r>    1.4948    1.0000 </r>
       <r>    2.7542    1.0000 </r>
       <r>    7.6504    0.0000 </r>
       <r>    9.7946    0.0000 </r>
       <r>   11.9545    0.0000 </r>
       <r>   12.2790    0.0000 </r>
      </set>
      <set comment="kpoint 66">
       <r>   -2.4639    1.0000 </r>
       <r>   -1.5853    1.0000 </r>
       <r>    1.4799    1.0000 </r>
       <r>    2.8305    1.0000 </r>
       <r>    7.5141    0.0000 </r>
       <r>    9.7826    0.0000 </r>
       <r>   12.0770    0.0000 </r>
       <r>   12.4336    0.0000 </r>
      </set>
      <set comment="kpoint 67">
       <r>   -2.4807    1.0000 </r>
       <r>   -1.5766    1.0000 </r>
       <r>    1.4666    1.0000 </r>
       <r>    2.9042    1.0000 </r>
       <r>    7.3870    0.0000 </r>
       <r>    9.7717    0.0000 </r>
       <r>   12.1999    0.0000 </r>
       <r>   12.5893    0.0000 </r>
      </set>
      <set comment="kpoint 68">
       <r>   -2.4956    1.0000 </r>
       <r>   -1.5692    1.0000 </r>
       <r>    1.4548    1.0000 </r>
       <r>    2.9739    1.0000 </r>
       <r>    7.2703    0.0000 </r>
       <r>    9.7620    0.0000 </r>
       <r>   12.3226    0.0000 </r>
       <r>   12.7458    0.0000 </r>
      </set>
      <set comment="kpoint 69">
       <r>   -2.5085    1.0000 </r>
       <r>   -1.5630    1.0000 </r>
       <r>    1.4446    1.0000 </r>
       <r>    3.0384    1.0000 </r>
       <r>    7.1653    0.0000 </r>
       <r>    9.7534    0.0000 </r>
       <r>   12.4446    0.0000 </r>
       <r>   12.9029    0.0000 </r>
      </set>
      <set comment="kpoint 70">
       <r>   -2.5195    1.0000 </r>
       <r>   -1.5580    1.0000 </r>
       <r>    1.4359    1.0000 </r>
       <r>    3.0963    1.0000 </r>
       <r>    7.0733    0.0000 </r>
       <r>    9.7461    0.0000 </r>
       <r>   12.5650    0.0000 </r>
       <r>   13.0599    0.0000 </r>
      </set>
      <set comment="kpoint 71">
       <r>   -2.5284    1.0000 </r>
       <r>   -1.5540    1.0000 </r>
       <r>    1.4289    1.0000 </r>
       <r>    3.1462    1.0000 </r>
       <r>    6.9956    0.0000 </r>
       <r>    9.7401    0.0000 </r>
       <r>   12.6822    0.0000 </r>
       <r>   13.2160    0.0000 </r>
      </set>
      <set comment="kpoint 72">
       <r>   -2.5353    1.0000 </r>
       <r>   -1.5509    1.0000 </r>
       <r>    1.4233    1.0000 </r>
       <r>    3.1867    1.0000 </r>
       <r>    6.9334    0.0000 </r>
       <r>    9.7354    0.0000 </r>
       <r>   12.7935    0.0000 </r>
       <r>   13.3694    0.0000 </r>
      </set>
      <set comment="kpoint 73">
       <r>   -2.5403    1.0000 </r>
       <r>   -1.5488    1.0000 </r>
       <r>    1.4194    1.0000 </r>
       <r>    3.2166    1.0000 </r>
       <r>    6.8881    0.0000 </r>
       <r>    9.7320    0.0000 </r>
       <r>   12.8931    0.0000 </r>
       <r>   13.5222    0.0000 </r>
      </set>
      <set comment="kpoint 74">
       <r>   -2.5433    1.0000 </r>
       <r>   -1.5475    1.0000 </r>
       <r>    1.4170    1.0000 </r>
       <r>    3.2350    1.0000 </r>
       <r>    6.8605    0.0000 </r>
       <r>    9.7300    0.0000 </r>
       <r>   12.9685    0.0000 </r>
       <r>   13.5749    0.0000 </r>
      </set>
      <set comment="kpoint 75">
       <r>   -2.5443    1.0000 </r>
       <r>   -1.5471    1.0000 </r>
       <r>    1.4162    1.0000 </r>
       <r>    3.2412    1.0000 </r>
       <r>    6.8512    0.0000 </r>
       <r>    9.7293    0.0000 </r>
       <r>   12.9983    0.0000 </r>
       <r>   13.5376    0.0000 </r>
      </set>
      <set comment="kpoint 76">
       <r>   -2.5443    1.0000 </r>
       <r>   -1.5471    1.0000 </r>
       <r>    1.4162    1.0000 </r>
       <r>    3.2412    1.0000 </r>
       <r>    6.8512    0.0000 </r>
       <r>    9.7293    0.0000 </r>
       <r>   12.9982    0.0000 </r>
       <r>   13.5369    0.0000 </r>
      </set>
      <set comment="kpoint 77">
       <r>   -2.6954    1.0000 </r>
       <r>   -1.3930    1.0000 </r>
       <r>    1.3341    1.0000 </r>
       <r>    3.3480    1.0000 </r>
       <r>    6.9744    0.0000 </r>
       <r>   10.3577    0.0000 </r>
       <r>   12.6240    0.0000 </r>
       <r>   13.1475    0.0000 </r>
      </set>
      <set comment="kpoint 78">
       <r>   -2.8717    1.0000 </r>
       <r>   -1.2210    1.0000 </r>
       <r>    1.3015    1.0000 </r>
       <r>    3.4649    1.0000 </r>
       <r>    7.1092    0.0000 </r>
       <r>   10.9906    0.0000 </r>
       <r>   12.2605    0.0000 </r>
       <r>   12.7907    0.0000 </r>
      </set>
      <set comment="kpoint 79">
       <r>   -3.0692    1.0000 </r>
       <r>   -1.0314    1.0000 </r>
       <r>    1.3162    1.0000 </r>
       <r>    3.5910    1.0000 </r>
       <r>    7.2542    0.0000 </r>
       <r>   11.5739    0.0000 </r>
       <r>   11.9093    0.0000 </r>
       <r>   12.5140    0.0000 </r>
      </set>
      <set comment="kpoint 80">
       <r>   -3.2826    1.0000 </r>
       <r>   -0.8241    1.0000 </r>
       <r>    1.3740    1.0000 </r>
       <r>    3.7253    1.0000 </r>
       <r>    7.4079    0.0000 </r>
       <r>   11.5714    0.0000 </r>
       <r>   11.7877    0.0000 </r>
       <r>   12.5496    0.0000 </r>
      </set>
      <set comment="kpoint 81">
       <r>   -3.5065    1.0000 </r>
       <r>   -0.5994    1.0000 </r>
       <r>    1.4705    1.0000 </r>
       <r>    3.8664    1.0000 </r>
       <r>    7.5679    0.0000 </r>
       <r>   11.2476    0.0000 </r>
       <r>   11.5676    0.0000 </r>
       <r>   12.2950    0.0000 </r>
      </set>
      <set comment="kpoint 82">
       <r>   -3.7359    1.0000 </r>
       <r>   -0.3574    1.0000 </r>
       <r>    1.6010    1.0000 </r>
       <r>    4.0128    1.0000 </r>
       <r>    7.7317    0.0000 </r>
       <r>   10.9384    0.0000 </r>
       <r>   11.2769    0.0000 </r>
       <r>   12.0597    0.0000 </r>
      </set>
      <set comment="kpoint 83">
       <r>   -3.9662    1.0000 </r>
       <r>   -0.0984    1.0000 </r>
       <r>    1.7613    1.0000 </r>
       <r>    4.1629    1.0000 </r>
       <r>    7.8955    0.0000 </r>
       <r>   10.6444    0.0000 </r>
       <r>   10.9840    0.0000 </r>
       <r>   11.8465    0.0000 </r>
      </set>
      <set comment="kpoint 84">
       <r>   -4.1940    1.0000 </r>
       <r>    0.1776    1.0000 </r>
       <r>    1.9476    1.0000 </r>
       <r>    4.3147    1.0000 </r>
       <r>    8.0550    0.0000 </r>
       <r>   10.3660    0.0000 </r>
       <r>   10.7007    0.0000 </r>
       <r>   11.6594    0.0000 </r>
      </set>
      <set comment="kpoint 85">
       <r>   -4.4162    1.0000 </r>
       <r>    0.4701    1.0000 </r>
       <r>    2.1568    1.0000 </r>
       <r>    4.4660    1.0000 </r>
       <r>    8.2046    0.0000 </r>
       <r>   10.1034    0.0000 </r>
       <r>   10.4304    0.0000 </r>
       <r>   11.5013    0.0000 </r>
      </set>
      <set comment="kpoint 86">
       <r>   -4.6305    1.0000 </r>
       <r>    0.7789    1.0000 </r>
       <r>    2.3860    1.0000 </r>
       <r>    4.6146    1.0000 </r>
       <r>    8.3381    0.0000 </r>
       <r>    9.8569    0.0000 </r>
       <r>   10.1744    0.0000 </r>
       <r>   11.3768    0.0000 </r>
      </set>
      <set comment="kpoint 87">
       <r>   -4.8350    1.0000 </r>
       <r>    1.1036    1.0000 </r>
       <r>    2.6324    1.0000 </r>
       <r>    4.7580    1.0000 </r>
       <r>    8.4491    0.0000 </r>
       <r>    9.6267    0.0000 </r>
       <r>    9.9332    0.0000 </r>
       <r>   11.2878    0.0000 </r>
      </set>
      <set comment="kpoint 88">
       <r>   -5.0282    1.0000 </r>
       <r>    1.4437    1.0000 </r>
       <r>    2.8934    1.0000 </r>
       <r>    4.8941    1.0000 </r>
       <r>    8.5323    0.0000 </r>
       <r>    9.4131    0.0000 </r>
       <r>    9.7069    0.0000 </r>
       <r>   11.2333    0.0000 </r>
      </set>
      <set comment="kpoint 89">
       <r>   -5.2089    1.0000 </r>
       <r>    1.7986    1.0000 </r>
       <r>    3.1666    1.0000 </r>
       <r>    5.0206    1.0000 </r>
       <r>    8.5850    0.0000 </r>
       <r>    9.2161    0.0000 </r>
       <r>    9.4956    0.0000 </r>
       <r>   11.2059    0.0000 </r>
      </set>
      <set comment="kpoint 90">
       <r>   -5.3762    1.0000 </r>
       <r>    2.1674    1.0000 </r>
       <r>    3.4489    1.0000 </r>
       <r>    5.1358    1.0000 </r>
       <r>    8.6085    0.0000 </r>
       <r>    9.0359    0.0000 </r>
       <r>    9.2988    0.0000 </r>
       <r>   11.1882    0.0000 </r>
      </set>
      <set comment="kpoint 91">
       <r>   -5.5293    1.0000 </r>
       <r>    2.5493    1.0000 </r>
       <r>    3.7372    1.0000 </r>
       <r>    5.2382    1.0000 </r>
       <r>    8.6068    0.0000 </r>
       <r>    8.8726    0.0000 </r>
       <r>    9.1164    0.0000 </r>
       <r>   11.1498    0.0000 </r>
      </set>
      <set comment="kpoint 92">
       <r>   -5.6676    1.0000 </r>
       <r>    2.9426    1.0000 </r>
       <r>    4.0278    1.0000 </r>
       <r>    5.3272    1.0000 </r>
       <r>    8.5861    0.0000 </r>
       <r>    8.7263    0.0000 </r>
       <r>    8.9480    0.0000 </r>
       <r>   11.0479    0.0000 </r>
      </set>
      <set comment="kpoint 93">
       <r>   -5.7907    1.0000 </r>
       <r>    3.3453    1.0000 </r>
       <r>    4.3162    1.0000 </r>
       <r>    5.4027    1.0000 </r>
       <r>    8.5527    0.0000 </r>
       <r>    8.5970    0.0000 </r>
       <r>    8.7932    0.0000 </r>
       <r>   10.8434    0.0000 </r>
      </set>
      <set comment="kpoint 94">
       <r>   -5.8980    1.0000 </r>
       <r>    3.7542    1.0000 </r>
       <r>    4.5967    1.0000 </r>
       <r>    5.4650    1.0000 </r>
       <r>    8.4849    0.0000 </r>
       <r>    8.5118    0.0000 </r>
       <r>    8.6517    0.0000 </r>
       <r>   10.5305    0.0000 </r>
      </set>
      <set comment="kpoint 95">
       <r>   -5.9892    1.0000 </r>
       <r>    4.1644    1.0000 </r>
       <r>    4.8626    1.0000 </r>
       <r>    5.5150    1.0000 </r>
       <r>    8.3900    0.0000 </r>
       <r>    8.4668    0.0000 </r>
       <r>    8.5239    0.0000 </r>
       <r>   10.1435    0.0000 </r>
      </set>
      <set comment="kpoint 96">
       <r>   -6.0642    1.0000 </r>
       <r>    4.5676    1.0000 </r>
       <r>    5.1051    1.0000 </r>
       <r>    5.5537    1.0000 </r>
       <r>    8.3122    0.0000 </r>
       <r>    8.4107    0.0000 </r>
       <r>    8.4185    0.0000 </r>
       <r>    9.7297    0.0000 </r>
      </set>
      <set comment="kpoint 97">
       <r>   -6.1228    1.0000 </r>
       <r>    4.9494    1.0000 </r>
       <r>    5.3138    1.0000 </r>
       <r>    5.5823    1.0000 </r>
       <r>    8.2517    0.0000 </r>
       <r>    8.3145    0.0000 </r>
       <r>    8.3641    0.0000 </r>
       <r>    9.3359    0.0000 </r>
      </set>
      <set comment="kpoint 98">
       <r>   -6.1647    1.0000 </r>
       <r>    5.2837    1.0000 </r>
       <r>    5.4765    1.0000 </r>
       <r>    5.6019    1.0000 </r>
       <r>    8.2085    0.0000 </r>
       <r>    8.2393    0.0000 </r>
       <r>    8.2956    0.0000 </r>
       <r>    9.0135    0.0000 </r>
      </set>
      <set comment="kpoint 99">
       <r>   -6.1898    1.0000 </r>
       <r>    5.5258    1.0000 </r>
       <r>    5.5809    1.0000 </r>
       <r>    5.6132    1.0000 </r>
       <r>    8.1825    0.0000 </r>
       <r>    8.1908    0.0000 </r>
       <r>    8.2154    0.0000 </r>
       <r>    8.8144    0.0000 </r>
      </set>
      <set comment="kpoint 100">
       <r>   -6.1982    1.0000 </r>
       <r>    5.6170    1.0000 </r>
       <r>    5.6170    1.0000 </r>
       <r>    5.6170    1.0000 </r>
       <r>    8.1739    0.0000 </r>
       <r>    8.1739    0.0000 </r>
       <r>    8.1739    0.0000 </r>
       <r>    8.7518    0.0000 </r>
      </set>
      <set comment="kpoint 101">
       <r>   -6.1982    1.0000 </r>
       <r>    5.6170    1.0000 </r>
       <r>    5.6170    1.0000 </r>
       <r>    5.6170    1.0000 </r>
       <r>    8.1739    0.0000 </r>
       <r>    8.1739    0.0000 </r>
       <r>    8.1739    0.0000 </r>
       <r>    8.7518    0.0000 </r>
      </set>
      <set comment="kpoint 102">
       <r>   -6.1926    1.0000 </r>
       <r>    5.5484    1.0000 </r>
       <r>    5.6073    1.0000 </r>
       <r>    5.6073    1.0000 </r>
       <r>    8.1880    0.0000 </r>
       <r>    8.1880    0.0000 </r>
       <r>    8.1908    0.0000 </r>
       <r>    8.7936    0.0000 </r>
      </set>
      <set comment="kpoint 103">
       <r>   -6.1758    1.0000 </r>
       <r>    5.3595    1.0000 </r>
       <r>    5.5791    1.0000 </r>
       <r>    5.5791    1.0000 </r>
       <r>    8.2154    0.0000 </r>
[...]
       </set>
       <set comment="band 5">
        <r>  0.0513  0.0368  0.0002  0.0002  0.0000  0.0000  0.0000  0.0000  0.0000 </r>
        <r>  0.0513  0.0368  0.0002  0.0002  0.0000  0.0000  0.0000  0.0000  0.0000 </r>
       </set>
       <set comment="band 6">
        <r>  0.0424  0.0278  0.0158  0.0158  0.0000  0.0000  0.0000  0.0000  0.0000 </r>
        <r>  0.0424  0.0278  0.0158  0.0158  0.0000  0.0000  0.0000  0.0000  0.0000 </r>
       </set>
       <set comment="band 7">
        <r>  0.0000  0.0000  0.0970  0.0962  0.0000  0.0000  0.0000  0.0000  0.0000 </r>
        <r>  0.0000  0.0000  0.0959  0.0972  0.0000  0.0000  0.0000  0.0000  0.0000 </r>
       </set>
       <set comment="band 8">
        <r>  0.0196  0.0164  0.1007  0.1017  0.0000  0.0000  0.0000  0.0000  0.0000 </r>
        <r>  0.0172  0.0207  0.1007  0.0999  0.0000  0.0000  0.0000  0.0000  0.0000 </r>
       </set>
      </set>
      <set comment="kpoint 241">
       <set comment="band 1">
        <r>  0.1975  0.0408  0.0005  0.0005  0.0000  0.0000  0.0000  0.0000  0.0000 </r>
        <r>  0.1975  0.0408  0.0005  0.0005  0.0000  0.0000  0.0000  0.0000  0.0000 </r>
       </set>
       <set comment="band 2">
        <r>  0.1919  0.0437  0.0008  0.0008  0.0000  0.0000  0.0000  0.0000  0.0000 </r>
        <r>  0.1919  0.0437  0.0008  0.0008  0.0000  0.0000  0.0000  0.0000  0.0000 </r>
       </set>
       <set comment="band 3">
        <r>  0.0024  0.0105  0.0831  0.0831  0.0000  0.0000  0.0000  0.0000  0.0000 </r>
        <r>  0.0024  0.0105  0.0831  0.0831  0.0000  0.0000  0.0000  0.0000  0.0000 </r>
       </set>
       <set comment="band 4">
        <r>  0.0000  0.0000  0.0977  0.0977  0.0000  0.0000  0.0000  0.0000  0.0000 </r>
        <r>  0.0000  0.0000  0.0977  0.0977  0.0000  0.0000  0.0000  0.0000  0.0000 </r>
       </set>
       <set comment="band 5">
        <r>  0.0512  0.0367  0.0001  0.0001  0.0000  0.0000  0.0000  0.0000  0.0000 </r>
        <r>  0.0512  0.0367  0.0001  0.0001  0.0000  0.0000  0.0000  0.0000  0.0000 </r>
       </set>
       <set comment="band 6">
        <r>  0.0436  0.0289  0.0138  0.0138  0.0000  0.0000  0.0000  0.0000  0.0000 </r>
        <r>  0.0436  0.0289  0.0138  0.0138  0.0000  0.0000  0.0000  0.0000  0.0000 </r>
       </set>
       <set comment="band 7">
        <r>  0.0000  0.0000  0.0990  0.0991  0.0000  0.0000  0.0000  0.0000  0.0000 </r>
        <r>  0.0000  0.0000  0.0988  0.0987  0.0000  0.0000  0.0000  0.0000  0.0000 </r>
       </set>
       <set comment="band 8">
        <r>  0.0158  0.0159  0.1040  0.1033  0.0000  0.0000  0.0000  0.0000  0.0000 </r>
        <r>  0.0155  0.0163  0.1039  0.1035  0.0000  0.0000  0.0000  0.0000  0.0000 </r>
       </set>
      </set>
      <set comment="kpoint 242">
       <set comment="band 1">
        <r>  0.1966  0.0415  0.0004  0.0004  0.0000  0.0000  0.0000  0.0000  0.0000 </r>
        <r>  0.1966  0.0415  0.0004  0.0004  0.0000  0.0000  0.0000  0.0000  0.0000 </r>
       </set>
       <set comment="band 2">
        <r>  0.1922  0.0438  0.0006  0.0006  0.0000  0.0000  0.0000  0.0000  0.0000 </r>
        <r>  0.1922  0.0438  0.0006  0.0006  0.0000  0.0000  0.0000  0.0000  0.0000 </r>
       </set>
       <set comment="band 3">
        <r>  0.0022  0.0087  0.0853  0.0853  0.0000  0.0000  0.0000  0.0000  0.0000 </r>
        <r>  0.0022  0.0087  0.0853  0.0853  0.0000  0.0000  0.0000  0.0000  0.0000 </r>
       </set>
       <set comment="band 4">
        <r>  0.0000  0.0000  0.0977  0.0977  0.0000  0.0000  0.0000  0.0000  0.0000 </r>
        <r>  0.0000  0.0000  0.0977  0.0977  0.0000  0.0000  0.0000  0.0000  0.0000 </r>
       </set>
       <set comment="band 5">
        <r>  0.0512  0.0366  0.0001  0.0001  0.0000  0.0000  0.0000  0.0000  0.0000 </r>
        <r>  0.0512  0.0366  0.0001  0.0001  0.0000  0.0000  0.0000  0.0000  0.0000 </r>
       </set>
       <set comment="band 6">
        <r>  0.0448  0.0301  0.0117  0.0117  0.0000  0.0000  0.0000  0.0000  0.0000 </r>
        <r>  0.0448  0.0301  0.0117  0.0117  0.0000  0.0000  0.0000  0.0000  0.0000 </r>
       </set>
       <set comment="band 7">
        <r>  0.0001  0.0000  0.0963  0.1064  0.0000  0.0000  0.0000  0.0000  0.0000 </r>
        <r>  0.0000  0.0002  0.1080  0.0967  0.0000  0.0000  0.0000  0.0000  0.0000 </r>
       </set>
       <set comment="band 8">
        <r>  0.0102  0.0193  0.1092  0.0982  0.0000  0.0000  0.0000  0.0000  0.0000 </r>
        <r>  0.0158  0.0090  0.1010  0.1105  0.0000  0.0000  0.0000  0.0000  0.0000 </r>
       </set>
      </set>
      <set comment="kpoint 243">
       <set comment="band 1">
        <r>  0.1958  0.0421  0.0003  0.0003  0.0000  0.0000  0.0000  0.0000  0.0000 </r>
        <r>  0.1958  0.0421  0.0003  0.0003  0.0000  0.0000  0.0000  0.0000  0.0000 </r>
       </set>
       <set comment="band 2">
        <r>  0.1924  0.0438  0.0005  0.0005  0.0000  0.0000  0.0000  0.0000  0.0000 </r>
        <r>  0.1924  0.0438  0.0005  0.0005  0.0000  0.0000  0.0000  0.0000  0.0000 </r>
       </set>
       <set comment="band 3">
        <r>  0.0019  0.0070  0.0876  0.0876  0.0000  0.0000  0.0000  0.0000  0.0000 </r>
        <r>  0.0019  0.0070  0.0876  0.0876  0.0000  0.0000  0.0000  0.0000  0.0000 </r>
       </set>
       <set comment="band 4">
        <r>  0.0000  0.0000  0.0976  0.0976  0.0000  0.0000  0.0000  0.0000  0.0000 </r>
        <r>  0.0000  0.0000  0.0976  0.0976  0.0000  0.0000  0.0000  0.0000  0.0000 </r>
       </set>
       <set comment="band 5">
        <r>  0.0512  0.0365  0.0001  0.0001  0.0000  0.0000  0.0000  0.0000  0.0000 </r>
        <r>  0.0512  0.0365  0.0001  0.0001  0.0000  0.0000  0.0000  0.0000  0.0000 </r>
       </set>
       <set comment="band 6">
        <r>  0.0460  0.0312  0.0096  0.0096  0.0000  0.0000  0.0000  0.0000  0.0000 </r>
        <r>  0.0460  0.0312  0.0096  0.0096  0.0000  0.0000  0.0000  0.0000  0.0000 </r>
       </set>
       <set comment="band 7">
        <r>  0.0000  0.0000  0.1045  0.1039  0.0000  0.0000  0.0000  0.0000  0.0000 </r>
        <r>  0.0000  0.0000  0.1043  0.1039  0.0000  0.0000  0.0000  0.0000  0.0000 </r>
       </set>
       <set comment="band 8">
        <r>  0.0104  0.0114  0.1089  0.1087  0.0000  0.0000  0.0000  0.0000  0.0000 </r>
        <r>  0.0105  0.0111  0.1092  0.1088  0.0000  0.0000  0.0000  0.0000  0.0000 </r>
       </set>
      </set>
      <set comment="kpoint 244">
       <set comment="band 1">
        <r>  0.1952  0.0426  0.0002  0.0002  0.0000  0.0000  0.0000  0.0000  0.0000 </r>
        <r>  0.1952  0.0426  0.0002  0.0002  0.0000  0.0000  0.0000  0.0000  0.0000 </r>
       </set>
       <set comment="band 2">
        <r>  0.1926  0.0439  0.0003  0.0003  0.0000  0.0000  0.0000  0.0000  0.0000 </r>
        <r>  0.1926  0.0439  0.0003  0.0003  0.0000  0.0000  0.0000  0.0000  0.0000 </r>
       </set>
       <set comment="band 3">
        <r>  0.0016  0.0053  0.0897  0.0897  0.0000  0.0000  0.0000  0.0000  0.0000 </r>
        <r>  0.0016  0.0053  0.0897  0.0897  0.0000  0.0000  0.0000  0.0000  0.0000 </r>
       </set>
       <set comment="band 4">
        <r>  0.0000  0.0000  0.0976  0.0976  0.0000  0.0000  0.0000  0.0000  0.0000 </r>
        <r>  0.0000  0.0000  0.0976  0.0976  0.0000  0.0000  0.0000  0.0000  0.0000 </r>
       </set>
       <set comment="band 5">
        <r>  0.0512  0.0364  0.0001  0.0001  0.0000  0.0000  0.0000  0.0000  0.0000 </r>
        <r>  0.0512  0.0364  0.0001  0.0001  0.0000  0.0000  0.0000  0.0000  0.0000 </r>
       </set>
       <set comment="band 6">
        <r>  0.0472  0.0323  0.0075  0.0075  0.0000  0.0000  0.0000  0.0000  0.0000 </r>
        <r>  0.0472  0.0323  0.0075  0.0075  0.0000  0.0000  0.0000  0.0000  0.0000 </r>
       </set>
       <set comment="band 7">
        <r>  0.0000  0.0000  0.1062  0.1073  0.0000  0.0000  0.0000  0.0000  0.0000 </r>
        <r>  0.0000  0.0000  0.1079  0.1076  0.0000  0.0000  0.0000  0.0000  0.0000 </r>
       </set>
       <set comment="band 8">
        <r>  0.0082  0.0088  0.1113  0.1113  0.0000  0.0000  0.0000  0.0000  0.0000 </r>
        <r>  0.0081  0.0090  0.1103  0.1121  0.0000  0.0000  0.0000  0.0000  0.0000 </r>
       </set>
      </set>
      <set comment="kpoint 245">
       <set comment="band 1">
        <r>  0.1946  0.0430  0.0001  0.0001  0.0000  0.0000  0.0000  0.0000  0.0000 </r>
        <r>  0.1946  0.0430  0.0001  0.0001  0.0000  0.0000  0.0000  0.0000  0.0000 </r>
       </set>
       <set comment="band 2">
        <r>  0.1928  0.0439  0.0002  0.0002  0.0000  0.0000  0.0000  0.0000  0.0000 </r>
        <r>  0.1928  0.0439  0.0002  0.0002  0.0000  0.0000  0.0000  0.0000  0.0000 </r>
       </set>
       <set comment="band 3">
        <r>  0.0013  0.0039  0.0918  0.0918  0.0000  0.0000  0.0000  0.0000  0.0000 </r>
        <r>  0.0013  0.0039  0.0918  0.0918  0.0000  0.0000  0.0000  0.0000  0.0000 </r>
       </set>
       <set comment="band 4">
        <r>  0.0000  0.0000  0.0976  0.0976  0.0000  0.0000  0.0000  0.0000  0.0000 </r>
        <r>  0.0000  0.0000  0.0976  0.0976  0.0000  0.0000  0.0000  0.0000  0.0000 </r>
       </set>
       <set comment="band 5">
        <r>  0.0512  0.0364  0.0000  0.0000  0.0000  0.0000  0.0000  0.0000  0.0000 </r>
        <r>  0.0512  0.0364  0.0000  0.0000  0.0000  0.0000  0.0000  0.0000  0.0000 </r>
       </set>
       <set comment="band 6">
        <r>  0.0483  0.0333  0.0055  0.0055  0.0000  0.0000  0.0000  0.0000  0.0000 </r>
        <r>  0.0483  0.0333  0.0055  0.0055  0.0000  0.0000  0.0000  0.0000  0.0000 </r>
       </set>
       <set comment="band 7">
        <r>  0.0000  0.0000  0.1107  0.1092  0.0000  0.0000  0.0000  0.0000  0.0000 </r>
        <r>  0.0000  0.0000  0.1103  0.1103  0.0000  0.0000  0.0000  0.0000  0.0000 </r>
       </set>
       <set comment="band 8">
        <r>  0.0057  0.0069  0.1130  0.1134  0.0000  0.0000  0.0000  0.0000  0.0000 </r>
        <r>  0.0061  0.0063  0.1144  0.1138  0.0000  0.0000  0.0000  0.0000  0.0000 </r>
       </set>
      </set>
      <set comment="kpoint 246">
       <set comment="band 1">
        <r>  0.1941  0.0433  0.0001  0.0001  0.0000  0.0000  0.0000  0.0000  0.0000 </r>
        <r>  0.1941  0.0433  0.0001  0.0001  0.0000  0.0000  0.0000  0.0000  0.0000 </r>
       </set>
       <set comment="band 2">
        <r>  0.1930  0.0439  0.0002  0.0002  0.0000  0.0000  0.0000  0.0000  0.0000 </r>
        <r>  0.1930  0.0439  0.0002  0.0002  0.0000  0.0000  0.0000  0.0000  0.0000 </r>
       </set>
       <set comment="band 3">
        <r>  0.0009  0.0026  0.0937  0.0937  0.0000  0.0000  0.0000  0.0000  0.0000 </r>
        <r>  0.0009  0.0026  0.0937  0.0937  0.0000  0.0000  0.0000  0.0000  0.0000 </r>
       </set>
       <set comment="band 4">
        <r>  0.0000  0.0000  0.0975  0.0975  0.0000  0.0000  0.0000  0.0000  0.0000 </r>
        <r>  0.0000  0.0000  0.0975  0.0975  0.0000  0.0000  0.0000  0.0000  0.0000 </r>
       </set>
       <set comment="band 5">
        <r>  0.0512  0.0363  0.0000  0.0000  0.0000  0.0000  0.0000  0.0000  0.0000 </r>
        <r>  0.0512  0.0363  0.0000  0.0000  0.0000  0.0000  0.0000  0.0000  0.0000 </r>
       </set>
       <set comment="band 6">
        <r>  0.0492  0.0343  0.0037  0.0037  0.0000  0.0000  0.0000  0.0000  0.0000 </r>
        <r>  0.0492  0.0343  0.0037  0.0037  0.0000  0.0000  0.0000  0.0000  0.0000 </r>
       </set>
       <set comment="band 7">
        <r>  0.0000  0.0000  0.1133  0.1132  0.0000  0.0000  0.0000  0.0000  0.0000 </r>
        <r>  0.0000  0.0000  0.1129  0.1127  0.0000  0.0000  0.0000  0.0000  0.0000 </r>
       </set>
       <set comment="band 8">
        <r>  0.0037  0.0047  0.1146  0.1153  0.0000  0.0000  0.0000  0.0000  0.0000 </r>
        <r>  0.0041  0.0041  0.1166  0.1166  0.0000  0.0000  0.0000  0.0000  0.0000 </r>
       </set>
      </set>
      <set comment="kpoint 247">
       <set comment="band 1">
        <r>  0.1937  0.0436  0.0000  0.0000  0.0000  0.0000  0.0000  0.0000  0.0000 </r>
        <r>  0.1937  0.0436  0.0000  0.0000  0.0000  0.0000  0.0000  0.0000  0.0000 </r>
       </set>
       <set comment="band 2">
        <r>  0.1931  0.0439  0.0001  0.0001  0.0000  0.0000  0.0000  0.0000  0.0000 </r>
        <r>  0.1931  0.0439  0.0001  0.0001  0.0000  0.0000  0.0000  0.0000  0.0000 </r>
       </set>
       <set comment="band 3">
        <r>  0.0005  0.0015  0.0953  0.0953  0.0000  0.0000  0.0000  0.0000  0.0000 </r>
        <r>  0.0005  0.0015  0.0953  0.0953  0.0000  0.0000  0.0000  0.0000  0.0000 </r>
       </set>
       <set comment="band 4">
        <r>  0.0000  0.0000  0.0975  0.0975  0.0000  0.0000  0.0000  0.0000  0.0000 </r>
        <r>  0.0000  0.0000  0.0975  0.0975  0.0000  0.0000  0.0000  0.0000  0.0000 </r>
       </set>
       <set comment="band 5">
        <r>  0.0511  0.0363  0.0000  0.0000  0.0000  0.0000  0.0000  0.0000  0.0000 </r>
        <r>  0.0511  0.0363  0.0000  0.0000  0.0000  0.0000  0.0000  0.0000  0.0000 </r>
       </set>
       <set comment="band 6">
        <r>  0.0500  0.0351  0.0022  0.0022  0.0000  0.0000  0.0000  0.0000  0.0000 </r>
        <r>  0.0500  0.0351  0.0022  0.0022  0.0000  0.0000  0.0000  0.0000  0.0000 </r>
       </set>
       <set comment="band 7">
        <r>  0.0000  0.0001  0.1305  0.0987  0.0000  0.0000  0.0000  0.0000  0.0000 </r>
        <r>  0.0000  0.0001  0.1035  0.1281  0.0000  0.0000  0.0000  0.0000  0.0000 </r>
       </set>
       <set comment="band 8">
        <r>  0.0021  0.0028  0.1038  0.1293  0.0000  0.0000  0.0000  0.0000  0.0000 </r>
        <r>  0.0025  0.0024  0.1321  0.1040  0.0000  0.0000  0.0000  0.0000  0.0000 </r>
       </set>
      </set>
      <set comment="kpoint 248">
       <set comment="band 1">
        <r>  0.1935  0.0438  0.0000  0.0000  0.0000  0.0000  0.0000  0.0000  0.0000 </r>
        <r>  0.1935  0.0438  0.0000  0.0000  0.0000  0.0000  0.0000  0.0000  0.0000 </r>
       </set>
       <set comment="band 2">
        <r>  0.1932  0.0439  0.0000  0.0000  0.0000  0.0000  0.0000  0.0000  0.0000 </r>
        <r>  0.1932  0.0439  0.0000  0.0000  0.0000  0.0000  0.0000  0.0000  0.0000 </r>
       </set>
       <set comment="band 3">
        <r>  0.0002  0.0007  0.0965  0.0965  0.0000  0.0000  0.0000  0.0000  0.0000 </r>
        <r>  0.0002  0.0007  0.0965  0.0965  0.0000  0.0000  0.0000  0.0000  0.0000 </r>
       </set>
       <set comment="band 4">
        <r>  0.0000  0.0000  0.0975  0.0975  0.0000  0.0000  0.0000  0.0000  0.0000 </r>
        <r>  0.0000  0.0000  0.0975  0.0975  0.0000  0.0000  0.0000  0.0000  0.0000 </r>
       </set>
       <set comment="band 5">
        <r>  0.0511  0.0362  0.0000  0.0000  0.0000  0.0000  0.0000  0.0000  0.0000 </r>
        <r>  0.0511  0.0362  0.0000  0.0000  0.0000  0.0000  0.0000  0.0000  0.0000 </r>
       </set>
       <set comment="band 6">
        <r>  0.0506  0.0357  0.0010  0.0010  0.0000  0.0000  0.0000  0.0000  0.0000 </r>
        <r>  0.0506  0.0357  0.0010  0.0010  0.0000  0.0000  0.0000  0.0000  0.0000 </r>
       </set>
       <set comment="band 7">
        <r>  0.0000  0.0000  0.1176  0.1179  0.0000  0.0000  0.0000  0.0000  0.0000 </r>
        <r>  0.0000  0.0000  0.1198  0.1169  0.0000  0.0000  0.0000  0.0000  0.0000 </r>
       </set>
       <set comment="band 8">
        <r>  0.0011  0.0012  0.1198  0.1188  0.0000  0.0000  0.0000  0.0000  0.0000 </r>
        <r>  0.0010  0.0012  0.1174  0.1192  0.0000  0.0000  0.0000  0.0000  0.0000 </r>
       </set>
      </set>
      <set comment="kpoint 249">
       <set comment="band 1">
        <r>  0.1933  0.0439  0.0000  0.0000  0.0000  0.0000  0.0000  0.0000  0.0000 </r>
        <r>  0.1933  0.0439  0.0000  0.0000  0.0000  0.0000  0.0000  0.0000  0.0000 </r>
       </set>
       <set comment="band 2">
        <r>  0.1932  0.0439  0.0000  0.0000  0.0000  0.0000  0.0000  0.0000  0.0000 </r>
        <r>  0.1932  0.0439  0.0000  0.0000  0.0000  0.0000  0.0000  0.0000  0.0000 </r>
       </set>
       <set comment="band 3">
        <r>  0.0001  0.0002  0.0972  0.0972  0.0000  0.0000  0.0000  0.0000  0.0000 </r>
        <r>  0.0001  0.0002  0.0972  0.0972  0.0000  0.0000  0.0000  0.0000  0.0000 </r>
       </set>
       <set comment="band 4">
        <r>  0.0000  0.0000  0.0975  0.0975  0.0000  0.0000  0.0000  0.0000  0.0000 </r>
        <r>  0.0000  0.0000  0.0975  0.0975  0.0000  0.0000  0.0000  0.0000  0.0000 </r>
       </set>
       <set comment="band 5">
        <r>  0.0511  0.0362  0.0000  0.0000  0.0000  0.0000  0.0000  0.0000  0.0000 </r>
        <r>  0.0511  0.0362  0.0000  0.0000  0.0000  0.0000  0.0000  0.0000  0.0000 </r>
       </set>
       <set comment="band 6">
        <r>  0.0510  0.0361  0.0003  0.0003  0.0000  0.0000  0.0000  0.0000  0.0000 </r>
        <r>  0.0510  0.0361  0.0003  0.0003  0.0000  0.0000  0.0000  0.0000  0.0000 </r>
       </set>
       <set comment="band 7">
        <r>  0.0000  0.0000  0.1198  0.1189  0.0000  0.0000  0.0000  0.0000  0.0000 </r>
        <r>  0.0000  0.0000  0.1192  0.1199  0.0000  0.0000  0.0000  0.0000  0.0000 </r>
       </set>
       <set comment="band 8">
        <r>  0.0003  0.0003  0.1196  0.1203  0.0000  0.0000  0.0000  0.0000  0.0000 </r>
        <r>  0.0003  0.0003  0.1199  0.1190  0.0000  0.0000  0.0000  0.0000  0.0000 </r>
       </set>
      </set>
      <set comment="kpoint 250">
       <set comment="band 1">
        <r>  0.1932  0.0439  0.0000  0.0000  0.0000  0.0000  0.0000  0.0000  0.0000 </r>
        <r>  0.1932  0.0439  0.0000  0.0000  0.0000  0.0000  0.0000  0.0000  0.0000 </r>
       </set>
       <set comment="band 2">
        <r>  0.1932  0.0439  0.0000  0.0000  0.0000  0.0000  0.0000  0.0000  0.0000 </r>
        <r>  0.1932  0.0439  0.0000  0.0000  0.0000  0.0000  0.0000  0.0000  0.0000 </r>
       </set>
       <set comment="band 3">
        <r>  0.0000  0.0000  0.0975  0.0975  0.0000  0.0000  0.0000  0.0000  0.0000 </r>
        <r>  0.0000  0.0000  0.0975  0.0975  0.0000  0.0000  0.0000  0.0000  0.0000 </r>
       </set>
       <set comment="band 4">
        <r>  0.0000  0.0000  0.0975  0.0975  0.0000  0.0000  0.0000  0.0000  0.0000 </r>
        <r>  0.0000  0.0000  0.0975  0.0975  0.0000  0.0000  0.0000  0.0000  0.0000 </r>
       </set>
       <set comment="band 5">
        <r>  0.0511  0.0362  0.0000  0.0000  0.0000  0.0000  0.0000  0.0000  0.0000 </r>
        <r>  0.0511  0.0362  0.0000  0.0000  0.0000  0.0000  0.0000  0.0000  0.0000 </r>
       </set>
       <set comment="band 6">
        <r>  0.0511  0.0362  0.0000  0.0000  0.0000  0.0000  0.0000  0.0000  0.0000 </r>
        <r>  0.0511  0.0362  0.0000  0.0000  0.0000  0.0000  0.0000  0.0000  0.0000 </r>
       </set>
       <set comment="band 7">
        <r>  0.0000  0.0000  0.1406  0.0996  0.0000  0.0000  0.0000  0.0000  0.0000 </r>
        <r>  0.0000  0.0000  0.0994  0.1403  0.0000  0.0000  0.0000  0.0000  0.0000 </r>
       </set>
       <set comment="band 8">
        <r>  0.0000  0.0000  0.0996  0.1408  0.0000  0.0000  0.0000  0.0000  0.0000 </r>
        <r>  0.0000  0.0000  0.1400  0.0995  0.0000  0.0000  0.0000  0.0000  0.0000 </r>
       </set>
      </set>
     </set>
    </set>
   </array>
  </projected>
 </calculation>
 <structure name="finalpos" >
  <crystal>
   <varray name="basis" >
    <v>       0.00000000       2.73429199       2.73429199 </v>
    <v>       2.73429199       0.00000000       2.73429199 </v>
    <v>       2.73429199       2.73429199       0.00000000 </v>
   </varray>
   <i name="volume">     40.88506259 </i>
   <varray name="rec_basis" >
    <v>      -0.18286269       0.18286269       0.18286269 </v>
    <v>       0.18286269      -0.18286269       0.18286269 </v>
    <v>       0.18286269       0.18286269      -0.18286269 </v>
   </varray>
  </crystal>
  <varray name="positions" >
   <v>       0.00000000       0.00000000       0.00000000 </v>
   <v>       0.25000000       0.25000000       0.25000000 </v>
  </varray>
 </structure>
</modeling>
