   2   2   1   0
  0.2044253E+02  0.3866873E-09  0.3866873E-09  0.3866873E-09  0.5000000E-15
  1.000000000000000E-004
  CAR 
 Si FCC                                  
     16.64150820     -7.28616003  301      5.79679107      1.00000000
     -7.286  0.0000E+00  0.0000E+00
     -7.206  0.0000E+00  0.0000E+00
     -7.127  0.0000E+00  0.0000E+00
     -7.047  0.0000E+00  0.0000E+00
     -6.967  0.0000E+00  0.0000E+00
     -6.887  0.0000E+00  0.0000E+00
     -6.808  0.0000E+00  0.0000E+00
     -6.728  0.0000E+00  0.0000E+00
     -6.648  0.0000E+00  0.0000E+00
     -6.568  0.0000E+00  0.0000E+00
     -6.489  0.0000E+00  0.0000E+00
     -6.409  0.0000E+00  0.0000E+00
     -6.329  0.3913E-12  0.3121E-13
     -6.249  0.1873E-04  0.1494E-05
     -6.170  0.1774E-01  0.1417E-02
     -6.090  0.9079E-01  0.8658E-02
     -6.010  0.1383E+00  0.1969E-01
     -5.930  0.1700E+00  0.3325E-01
     -5.850  0.1906E+00  0.4845E-01
     -5.771  0.2322E+00  0.6697E-01
     -5.691  0.2526E+00  0.8712E-01
     -5.611  0.2496E+00  0.1070E+00
     -5.531  0.3149E+00  0.1321E+00
     -5.452  0.2867E+00  0.1550E+00
     -5.372  0.3482E+00  0.1828E+00
     -5.292  0.3127E+00  0.2077E+00
     -5.212  0.3934E+00  0.2391E+00
     -5.133  0.3869E+00  0.2700E+00
     -5.053  0.3884E+00  0.3009E+00
     -4.973  0.4404E+00  0.3361E+00
     -4.893  0.4148E+00  0.3691E+00
     -4.814  0.4813E+00  0.4075E+00
     -4.734  0.4604E+00  0.4443E+00
     -4.654  0.4555E+00  0.4806E+00
     -4.574  0.5854E+00  0.5273E+00
     -4.495  0.4903E+00  0.5664E+00
     -4.415  0.5391E+00  0.6094E+00
     -4.335  0.6184E+00  0.6587E+00
     -4.255  0.6033E+00  0.7068E+00
     -4.176  0.5935E+00  0.7542E+00
     -4.096  0.7324E+00  0.8126E+00
     -4.016  0.7096E+00  0.8692E+00
     -3.936  0.7083E+00  0.9257E+00
     -3.857  0.1015E+01  0.1007E+01
     -3.777  0.8240E+00  0.1072E+01
     -3.697  0.8333E+00  0.1139E+01
     -3.617  0.9146E+00  0.1212E+01
     -3.537  0.7418E+00  0.1271E+01
     -3.458  0.7933E+00  0.1334E+01
     -3.378  0.7608E+00  0.1395E+01
     -3.298  0.6891E+00  0.1450E+01
     -3.218  0.7242E+00  0.1508E+01
     -3.139  0.6330E+00  0.1558E+01
     -3.059  0.6357E+00  0.1609E+01
     -2.979  0.6446E+00  0.1660E+01
     -2.899  0.5516E+00  0.1704E+01
     -2.820  0.4973E+00  0.1744E+01
     -2.740  0.6253E+00  0.1794E+01
     -2.660  0.3504E+00  0.1822E+01
     -2.580  0.4868E+00  0.1860E+01
     -2.501  0.4463E+00  0.1896E+01
     -2.421  0.2909E+00  0.1919E+01
     -2.341  0.4092E+00  0.1952E+01
     -2.261  0.2331E+00  0.1970E+01
     -2.182  0.2097E+00  0.1987E+01
     -2.102  0.1226E+00  0.1997E+01
     -2.022  0.8991E-01  0.2004E+01
     -1.942  0.9381E-01  0.2012E+01
     -1.863  0.9771E-01  0.2019E+01
     -1.783  0.3022E+00  0.2044E+01
     -1.703  0.2323E+00  0.2062E+01
     -1.623  0.1977E+00  0.2078E+01
     -1.544  0.5974E+00  0.2125E+01
     -1.464  0.2900E+00  0.2149E+01
     -1.384  0.3715E+00  0.2178E+01
     -1.304  0.7532E+00  0.2238E+01
     -1.224  0.5289E+00  0.2280E+01
     -1.145  0.1043E+01  0.2364E+01
     -1.065  0.1906E+01  0.2516E+01
     -0.985  0.1247E+01  0.2615E+01
     -0.905  0.1052E+01  0.2699E+01
     -0.826  0.9651E+00  0.2776E+01
     -0.746  0.7848E+00  0.2839E+01
     -0.666  0.7925E+00  0.2902E+01
     -0.586  0.6293E+00  0.2952E+01
     -0.507  0.6735E+00  0.3006E+01
     -0.427  0.5916E+00  0.3053E+01
     -0.347  0.5815E+00  0.3099E+01
     -0.267  0.4781E+00  0.3137E+01
     -0.188  0.6228E+00  0.3187E+01
     -0.108  0.3735E+00  0.3217E+01
     -0.028  0.5328E+00  0.3259E+01
      0.052  0.3646E+00  0.3289E+01
      0.131  0.4617E+00  0.3325E+01
      0.211  0.3889E+00  0.3356E+01
      0.291  0.3706E+00  0.3386E+01
      0.371  0.3397E+00  0.3413E+01
      0.450  0.4073E+00  0.3446E+01
      0.530  0.2612E+00  0.3466E+01
      0.610  0.4036E+00  0.3499E+01
      0.690  0.1925E+00  0.3514E+01
      0.769  0.3819E+00  0.3544E+01
      0.849  0.2454E+00  0.3564E+01
      0.929  0.3117E+00  0.3589E+01
      1.009  0.1698E+00  0.3602E+01
      1.089  0.3485E+00  0.3630E+01
      1.168  0.1785E+00  0.3644E+01
      1.248  0.2465E+00  0.3664E+01
      1.328  0.2490E+00  0.3684E+01
      1.408  0.5522E+00  0.3728E+01
      1.487  0.8276E+00  0.3794E+01
      1.567  0.9720E+00  0.3871E+01
      1.647  0.1279E+01  0.3973E+01
      1.727  0.1204E+01  0.4070E+01
      1.806  0.1108E+01  0.4158E+01
      1.886  0.1160E+01  0.4250E+01
      1.966  0.9848E+00  0.4329E+01
      2.046  0.1089E+01  0.4416E+01
      2.125  0.9919E+00  0.4495E+01
      2.205  0.1035E+01  0.4578E+01
      2.285  0.1212E+01  0.4674E+01
      2.365  0.8837E+00  0.4745E+01
      2.444  0.1245E+01  0.4844E+01
      2.524  0.1123E+01  0.4934E+01
      2.604  0.1047E+01  0.5017E+01
      2.684  0.1323E+01  0.5123E+01
      2.763  0.1444E+01  0.5238E+01
      2.843  0.1357E+01  0.5346E+01
      2.923  0.1549E+01  0.5470E+01
      3.003  0.1504E+01  0.5590E+01
      3.082  0.1565E+01  0.5714E+01
      3.162  0.1525E+01  0.5836E+01
      3.242  0.1400E+01  0.5948E+01
      3.322  0.1388E+01  0.6058E+01
      3.402  0.1413E+01  0.6171E+01
      3.481  0.1551E+01  0.6295E+01
      3.561  0.1197E+01  0.6390E+01
      3.641  0.1485E+01  0.6509E+01
      3.721  0.1221E+01  0.6606E+01
      3.800  0.1339E+01  0.6713E+01
      3.880  0.1313E+01  0.6818E+01
      3.960  0.1282E+01  0.6920E+01
      4.040  0.1262E+01  0.7020E+01
      4.119  0.1107E+01  0.7109E+01
      4.199  0.1344E+01  0.7216E+01
      4.279  0.1092E+01  0.7303E+01
      4.359  0.1142E+01  0.7394E+01
      4.438  0.1177E+01  0.7488E+01
      4.518  0.9842E+00  0.7566E+01
      4.598  0.7435E+00  0.7626E+01
      4.678  0.7391E+00  0.7685E+01
      4.757  0.5941E+00  0.7732E+01
      4.837  0.5640E+00  0.7777E+01
      4.917  0.5418E+00  0.7820E+01
      4.997  0.4050E+00  0.7853E+01
      5.076  0.3735E+00  0.7882E+01
      5.156  0.3633E+00  0.7911E+01
      5.236  0.2925E+00  0.7935E+01
      5.316  0.2632E+00  0.7956E+01
      5.396  0.2065E+00  0.7972E+01
      5.475  0.1808E+00  0.7987E+01
      5.555  0.1202E+00  0.7996E+01
      5.635  0.4641E-01  0.8000E+01
      5.715  0.1403E-02  0.8000E+01
      5.794  0.5749E-08  0.8000E+01
      5.874  0.0000E+00  0.8000E+01
      5.954  0.0000E+00  0.8000E+01
      6.034  0.0000E+00  0.8000E+01
      6.113  0.1173E-09  0.8000E+01
      6.193  0.3535E-03  0.8000E+01
      6.273  0.2693E-01  0.8002E+01
      6.353  0.1083E+00  0.8011E+01
      6.432  0.1773E+00  0.8025E+01
      6.512  0.3167E+00  0.8050E+01
      6.592  0.2830E+00  0.8073E+01
      6.672  0.3637E+00  0.8102E+01
      6.751  0.4065E+00  0.8134E+01
      6.831  0.5127E+00  0.8175E+01
      6.911  0.5454E+00  0.8219E+01
      6.991  0.5117E+00  0.8259E+01
      7.070  0.5461E+00  0.8303E+01
      7.150  0.6544E+00  0.8355E+01
      7.230  0.8144E+00  0.8420E+01
      7.310  0.8530E+00  0.8488E+01
      7.389  0.8717E+00  0.8558E+01
      7.469  0.1020E+01  0.8639E+01
      7.549  0.9508E+00  0.8715E+01
      7.629  0.1054E+01  0.8799E+01
      7.709  0.1428E+01  0.8913E+01
      7.788  0.1505E+01  0.9033E+01
      7.868  0.1611E+01  0.9161E+01
      7.948  0.1648E+01  0.9293E+01
      8.028  0.1531E+01  0.9415E+01
      8.107  0.1546E+01  0.9538E+01
      8.187  0.1425E+01  0.9652E+01
      8.267  0.1225E+01  0.9750E+01
      8.347  0.1421E+01  0.9863E+01
      8.426  0.1165E+01  0.9956E+01
      8.506  0.1191E+01  0.1005E+02
      8.586  0.9550E+00  0.1013E+02
      8.666  0.1044E+01  0.1021E+02
      8.745  0.9519E+00  0.1029E+02
      8.825  0.1343E+01  0.1039E+02
      8.905  0.2061E+01  0.1056E+02
      8.985  0.2721E+01  0.1077E+02
      9.064  0.1809E+01  0.1092E+02
      9.144  0.1784E+01  0.1106E+02
      9.224  0.1720E+01  0.1120E+02
      9.304  0.1689E+01  0.1133E+02
      9.383  0.1553E+01  0.1146E+02
      9.463  0.1520E+01  0.1158E+02
      9.543  0.1658E+01  0.1171E+02
      9.623  0.1438E+01  0.1183E+02
      9.702  0.1607E+01  0.1195E+02
      9.782  0.1027E+01  0.1204E+02
      9.862  0.1030E+01  0.1212E+02
      9.942  0.1019E+01  0.1220E+02
     10.022  0.1035E+01  0.1228E+02
     10.101  0.1533E+01  0.1240E+02
     10.181  0.1810E+01  0.1255E+02
     10.261  0.1308E+01  0.1265E+02
     10.341  0.1304E+01  0.1276E+02
     10.420  0.1008E+01  0.1284E+02
     10.500  0.9876E+00  0.1292E+02
     10.580  0.1491E+01  0.1303E+02
     10.660  0.1406E+01  0.1315E+02
     10.739  0.1291E+01  0.1325E+02
     10.819  0.1183E+01  0.1334E+02
     10.899  0.1039E+01  0.1343E+02
     10.979  0.1091E+01  0.1351E+02
     11.058  0.1162E+01  0.1361E+02
     11.138  0.1136E+01  0.1370E+02
     11.218  0.1364E+01  0.1381E+02
     11.298  0.1228E+01  0.1390E+02
     11.377  0.1156E+01  0.1400E+02
     11.457  0.9770E+00  0.1407E+02
     11.537  0.7732E+00  0.1414E+02
     11.617  0.9510E+00  0.1421E+02
     11.696  0.9605E+00  0.1429E+02
     11.776  0.1175E+01  0.1438E+02
     11.856  0.1424E+01  0.1450E+02
     11.936  0.9305E+00  0.1457E+02
     12.015  0.8472E+00  0.1464E+02
     12.095  0.7473E+00  0.1470E+02
     12.175  0.7943E+00  0.1476E+02
     12.255  0.7908E+00  0.1482E+02
     12.335  0.8167E+00  0.1489E+02
     12.414  0.1108E+01  0.1498E+02
     12.494  0.1201E+01  0.1507E+02
     12.574  0.8419E+00  0.1514E+02
     12.654  0.5571E+00  0.1518E+02
     12.733  0.5528E+00  0.1523E+02
     12.813  0.6125E+00  0.1528E+02
     12.893  0.4793E+00  0.1532E+02
     12.973  0.6108E+00  0.1536E+02
     13.052  0.7646E+00  0.1542E+02
     13.132  0.8841E+00  0.1550E+02
     13.212  0.4172E+00  0.1553E+02
     13.292  0.4005E+00  0.1556E+02
     13.371  0.4998E+00  0.1560E+02
     13.451  0.5953E+00  0.1565E+02
     13.531  0.4865E+00  0.1569E+02
     13.611  0.4697E+00  0.1572E+02
     13.690  0.6169E+00  0.1577E+02
     13.770  0.5744E+00  0.1582E+02
     13.850  0.9902E-01  0.1583E+02
     13.930  0.1305E+00  0.1584E+02
     14.009  0.1388E+00  0.1585E+02
     14.089  0.8024E-01  0.1585E+02
     14.169  0.1590E+00  0.1587E+02
     14.249  0.3487E+00  0.1590E+02
     14.329  0.3251E+00  0.1592E+02
     14.408  0.9900E-01  0.1593E+02
     14.488  0.4692E-01  0.1593E+02
     14.568  0.5796E-01  0.1594E+02
     14.648  0.1134E+00  0.1595E+02
     14.727  0.8795E-01  0.1595E+02
     14.807  0.7892E-01  0.1596E+02
     14.887  0.2147E+00  0.1598E+02
     14.967  0.8772E-01  0.1598E+02
     15.046  0.6299E-02  0.1598E+02
     15.126  0.2066E-01  0.1599E+02
     15.206  0.3490E-01  0.1599E+02
     15.286  0.5456E-01  0.1599E+02
     15.365  0.3873E-01  0.1600E+02
     15.445  0.3920E-01  0.1600E+02
     15.525  0.5439E-03  0.1600E+02
     15.605  0.5048E-02  0.1600E+02
     15.684  0.4661E-04  0.1600E+02
     15.764  0.2125E-11  0.1600E+02
     15.844  0.0000E+00  0.1600E+02
     15.924  0.0000E+00  0.1600E+02
     16.003  0.0000E+00  0.1600E+02
     16.083  0.0000E+00  0.1600E+02
     16.163  0.0000E+00  0.1600E+02
     16.243  0.0000E+00  0.1600E+02
     16.322  0.0000E+00  0.1600E+02
     16.402  0.0000E+00  0.1600E+02
     16.482  0.0000E+00  0.1600E+02
     16.562  0.0000E+00  0.1600E+02
     16.642  0.0000E+00  0.1600E+02
     16.64150820     -7.28616003  301      5.79679107      1.00000000
     -7.286  0.0000E+00  0.0000E+00  0.0000E+00  0.0000E+00  0.0000E+00  0.0000E+00  0.0000E+00  0.0000E+00  0.0000E+00
     -7.206  0.0000E+00  0.0000E+00  0.0000E+00  0.0000E+00  0.0000E+00  0.0000E+00  0.0000E+00  0.0000E+00  0.0000E+00
     -7.127  0.0000E+00  0.0000E+00  0.0000E+00  0.0000E+00  0.0000E+00  0.0000E+00  0.0000E+00  0.0000E+00  0.0000E+00
     -7.047  0.0000E+00  0.0000E+00  0.0000E+00  0.0000E+00  0.0000E+00  0.0000E+00  0.0000E+00  0.0000E+00  0.0000E+00
     -6.967  0.0000E+00  0.0000E+00  0.0000E+00  0.0000E+00  0.0000E+00  0.0000E+00  0.0000E+00  0.0000E+00  0.0000E+00
     -6.887  0.0000E+00  0.0000E+00  0.0000E+00  0.0000E+00  0.0000E+00  0.0000E+00  0.0000E+00  0.0000E+00  0.0000E+00
     -6.808  0.0000E+00  0.0000E+00  0.0000E+00  0.0000E+00  0.0000E+00  0.0000E+00  0.0000E+00  0.0000E+00  0.0000E+00
     -6.728  0.0000E+00  0.0000E+00  0.0000E+00  0.0000E+00  0.0000E+00  0.0000E+00  0.0000E+00  0.0000E+00  0.0000E+00
     -6.648  0.0000E+00  0.0000E+00  0.0000E+00  0.0000E+00  0.0000E+00  0.0000E+00  0.0000E+00  0.0000E+00  0.0000E+00
     -6.568  0.0000E+00  0.0000E+00  0.0000E+00  0.0000E+00  0.0000E+00  0.0000E+00  0.0000E+00  0.0000E+00  0.0000E+00
     -6.489  0.0000E+00  0.0000E+00  0.0000E+00  0.0000E+00  0.0000E+00  0.0000E+00  0.0000E+00  0.0000E+00  0.0000E+00
     -6.409  0.0000E+00  0.0000E+00  0.0000E+00  0.0000E+00  0.0000E+00  0.0000E+00  0.0000E+00  0.0000E+00  0.0000E+00
     -6.329  0.8293E-13  0.2006E-17  0.2006E-17  0.2006E-17  0.0000E+00  0.0000E+00  0.0000E+00  0.0000E+00  0.0000E+00
     -6.249  0.3970E-05  0.6300E-09  0.6300E-09  0.6300E-09  0.0000E+00  0.0000E+00  0.0000E+00  0.0000E+00  0.0000E+00
     -6.170  0.3758E-02  0.1807E-05  0.1807E-05  0.1807E-05  0.0000E+00  0.0000E+00  0.0000E+00  0.0000E+00  0.0000E+00
     -6.090  0.1921E-01  0.2534E-04  0.2534E-04  0.2534E-04  0.0000E+00  0.0000E+00  0.0000E+00  0.0000E+00  0.0000E+00
     -6.010  0.2921E-01  0.7595E-04  0.7595E-04  0.7595E-04  0.0000E+00  0.0000E+00  0.0000E+00  0.0000E+00  0.0000E+00
     -5.930  0.3584E-01  0.1415E-03  0.1415E-03  0.1415E-03  0.0000E+00  0.0000E+00  0.0000E+00  0.0000E+00  0.0000E+00
     -5.850  0.4013E-01  0.2092E-03  0.2092E-03  0.2092E-03  0.0000E+00  0.0000E+00  0.0000E+00  0.0000E+00  0.0000E+00
     -5.771  0.4880E-01  0.3172E-03  0.3172E-03  0.3172E-03  0.0000E+00  0.0000E+00  0.0000E+00  0.0000E+00  0.0000E+00
     -5.691  0.5300E-01  0.4211E-03  0.4211E-03  0.4211E-03  0.0000E+00  0.0000E+00  0.0000E+00  0.0000E+00  0.0000E+00
     -5.611  0.5230E-01  0.4761E-03  0.4761E-03  0.4761E-03  0.0000E+00  0.0000E+00  0.0000E+00  0.0000E+00  0.0000E+00
     -5.531  0.6591E-01  0.6904E-03  0.6904E-03  0.6904E-03  0.0000E+00  0.0000E+00  0.0000E+00  0.0000E+00  0.0000E+00
     -5.452  0.5991E-01  0.7033E-03  0.7033E-03  0.7033E-03  0.0000E+00  0.0000E+00  0.0000E+00  0.0000E+00  0.0000E+00
     -5.372  0.7270E-01  0.9485E-03  0.9485E-03  0.9485E-03  0.0000E+00  0.0000E+00  0.0000E+00  0.0000E+00  0.0000E+00
     -5.292  0.6522E-01  0.9245E-03  0.9245E-03  0.9245E-03  0.0000E+00  0.0000E+00  0.0000E+00  0.0000E+00  0.0000E+00
     -5.212  0.8195E-01  0.1272E-02  0.1272E-02  0.1272E-02  0.0000E+00  0.0000E+00  0.0000E+00  0.0000E+00  0.0000E+00
     -5.133  0.8055E-01  0.1339E-02  0.1339E-02  0.1339E-02  0.0000E+00  0.0000E+00  0.0000E+00  0.0000E+00  0.0000E+00
     -5.053  0.8077E-01  0.1457E-02  0.1457E-02  0.1457E-02  0.0000E+00  0.0000E+00  0.0000E+00  0.0000E+00  0.0000E+00
     -4.973  0.9156E-01  0.1744E-02  0.1744E-02  0.1744E-02  0.0000E+00  0.0000E+00  0.0000E+00  0.0000E+00  0.0000E+00
     -4.893  0.8618E-01  0.1744E-02  0.1744E-02  0.1744E-02  0.0000E+00  0.0000E+00  0.0000E+00  0.0000E+00  0.0000E+00
     -4.814  0.1000E+00  0.2142E-02  0.2142E-02  0.2142E-02  0.0000E+00  0.0000E+00  0.0000E+00  0.0000E+00  0.0000E+00
     -4.734  0.9561E-01  0.2145E-02  0.2145E-02  0.2145E-02  0.0000E+00  0.0000E+00  0.0000E+00  0.0000E+00  0.0000E+00
     -4.654  0.9465E-01  0.2222E-02  0.2222E-02  0.2222E-02  0.0000E+00  0.0000E+00  0.0000E+00  0.0000E+00  0.0000E+00
     -4.574  0.1216E+00  0.2996E-02  0.2996E-02  0.2996E-02  0.0000E+00  0.0000E+00  0.0000E+00  0.0000E+00  0.0000E+00
     -4.495  0.1019E+00  0.2599E-02  0.2599E-02  0.2599E-02  0.0000E+00  0.0000E+00  0.0000E+00  0.0000E+00  0.0000E+00
     -4.415  0.1122E+00  0.2971E-02  0.2971E-02  0.2971E-02  0.0000E+00  0.0000E+00  0.0000E+00  0.0000E+00  0.0000E+00
     -4.335  0.1288E+00  0.3515E-02  0.3515E-02  0.3515E-02  0.0000E+00  0.0000E+00  0.0000E+00  0.0000E+00  0.0000E+00
     -4.255  0.1257E+00  0.3568E-02  0.3568E-02  0.3568E-02  0.0000E+00  0.0000E+00  0.0000E+00  0.0000E+00  0.0000E+00
     -4.176  0.1242E+00  0.3563E-02  0.3563E-02  0.3563E-02  0.0000E+00  0.0000E+00  0.0000E+00  0.0000E+00  0.0000E+00
     -4.096  0.1533E+00  0.4541E-02  0.4541E-02  0.4541E-02  0.0000E+00  0.0000E+00  0.0000E+00  0.0000E+00  0.0000E+00
     -4.016  0.1490E+00  0.4483E-02  0.4483E-02  0.4483E-02  0.0000E+00  0.0000E+00  0.0000E+00  0.0000E+00  0.0000E+00
     -3.936  0.1499E+00  0.4466E-02  0.4466E-02  0.4466E-02  0.0000E+00  0.0000E+00  0.0000E+00  0.0000E+00  0.0000E+00
     -3.857  0.2155E+00  0.6479E-02  0.6479E-02  0.6479E-02  0.0000E+00  0.0000E+00  0.0000E+00  0.0000E+00  0.0000E+00
     -3.777  0.1753E+00  0.5412E-02  0.5412E-02  0.5412E-02  0.0000E+00  0.0000E+00  0.0000E+00  0.0000E+00  0.0000E+00
     -3.697  0.1771E+00  0.5731E-02  0.5731E-02  0.5731E-02  0.0000E+00  0.0000E+00  0.0000E+00  0.0000E+00  0.0000E+00
     -3.617  0.1939E+00  0.6552E-02  0.6552E-02  0.6552E-02  0.0000E+00  0.0000E+00  0.0000E+00  0.0000E+00  0.0000E+00
     -3.537  0.1571E+00  0.5535E-02  0.5535E-02  0.5535E-02  0.0000E+00  0.0000E+00  0.0000E+00  0.0000E+00  0.0000E+00
     -3.458  0.1677E+00  0.6181E-02  0.6181E-02  0.6181E-02  0.0000E+00  0.0000E+00  0.0000E+00  0.0000E+00  0.0000E+00
     -3.378  0.1607E+00  0.6092E-02  0.6092E-02  0.6092E-02  0.0000E+00  0.0000E+00  0.0000E+00  0.0000E+00  0.0000E+00
     -3.298  0.1452E+00  0.5767E-02  0.5767E-02  0.5767E-02  0.0000E+00  0.0000E+00  0.0000E+00  0.0000E+00  0.0000E+00
     -3.218  0.1522E+00  0.6305E-02  0.6305E-02  0.6305E-02  0.0000E+00  0.0000E+00  0.0000E+00  0.0000E+00  0.0000E+00
     -3.139  0.1333E+00  0.5614E-02  0.5614E-02  0.5614E-02  0.0000E+00  0.0000E+00  0.0000E+00  0.0000E+00  0.0000E+00
     -3.059  0.1332E+00  0.5893E-02  0.5893E-02  0.5893E-02  0.0000E+00  0.0000E+00  0.0000E+00  0.0000E+00  0.0000E+00
     -2.979  0.1350E+00  0.6172E-02  0.6172E-02  0.6172E-02  0.0000E+00  0.0000E+00  0.0000E+00  0.0000E+00  0.0000E+00
     -2.899  0.1154E+00  0.5412E-02  0.5412E-02  0.5412E-02  0.0000E+00  0.0000E+00  0.0000E+00  0.0000E+00  0.0000E+00
     -2.820  0.1036E+00  0.5080E-02  0.5080E-02  0.5080E-02  0.0000E+00  0.0000E+00  0.0000E+00  0.0000E+00  0.0000E+00
     -2.740  0.1300E+00  0.6586E-02  0.6586E-02  0.6586E-02  0.0000E+00  0.0000E+00  0.0000E+00  0.0000E+00  0.0000E+00
     -2.660  0.7291E-01  0.3762E-02  0.3762E-02  0.3762E-02  0.0000E+00  0.0000E+00  0.0000E+00  0.0000E+00  0.0000E+00
     -2.580  0.1008E+00  0.5430E-02  0.5430E-02  0.5430E-02  0.0000E+00  0.0000E+00  0.0000E+00  0.0000E+00  0.0000E+00
     -2.501  0.9166E-01  0.5182E-02  0.5182E-02  0.5182E-02  0.0000E+00  0.0000E+00  0.0000E+00  0.0000E+00  0.0000E+00
     -2.421  0.6034E-01  0.3377E-02  0.3377E-02  0.3377E-02  0.0000E+00  0.0000E+00  0.0000E+00  0.0000E+00  0.0000E+00
     -2.341  0.8347E-01  0.5058E-02  0.5058E-02  0.5058E-02  0.0000E+00  0.0000E+00  0.0000E+00  0.0000E+00  0.0000E+00
     -2.261  0.4717E-01  0.2982E-02  0.2982E-02  0.2982E-02  0.0000E+00  0.0000E+00  0.0000E+00  0.0000E+00  0.0000E+00
     -2.182  0.4294E-01  0.2676E-02  0.2676E-02  0.2676E-02  0.0000E+00  0.0000E+00  0.0000E+00  0.0000E+00  0.0000E+00
     -2.102  0.2438E-01  0.1689E-02  0.1689E-02  0.1689E-02  0.0000E+00  0.0000E+00  0.0000E+00  0.0000E+00  0.0000E+00
     -2.022  0.1763E-01  0.1302E-02  0.1302E-02  0.1302E-02  0.0000E+00  0.0000E+00  0.0000E+00  0.0000E+00  0.0000E+00
     -1.942  0.1863E-01  0.1347E-02  0.1347E-02  0.1347E-02  0.0000E+00  0.0000E+00  0.0000E+00  0.0000E+00  0.0000E+00
     -1.863  0.1884E-01  0.1515E-02  0.1515E-02  0.1515E-02  0.0000E+00  0.0000E+00  0.0000E+00  0.0000E+00  0.0000E+00
     -1.783  0.5891E-01  0.4654E-02  0.4654E-02  0.4654E-02  0.0000E+00  0.0000E+00  0.0000E+00  0.0000E+00  0.0000E+00
     -1.703  0.4531E-01  0.3625E-02  0.3625E-02  0.3625E-02  0.0000E+00  0.0000E+00  0.0000E+00  0.0000E+00  0.0000E+00
     -1.623  0.3809E-01  0.3218E-02  0.3218E-02  0.3218E-02  0.0000E+00  0.0000E+00  0.0000E+00  0.0000E+00  0.0000E+00
     -1.544  0.1152E+00  0.9817E-02  0.9817E-02  0.9817E-02  0.0000E+00  0.0000E+00  0.0000E+00  0.0000E+00  0.0000E+00
     -1.464  0.5491E-01  0.4997E-02  0.4997E-02  0.4997E-02  0.0000E+00  0.0000E+00  0.0000E+00  0.0000E+00  0.0000E+00
     -1.384  0.7018E-01  0.6531E-02  0.6531E-02  0.6531E-02  0.0000E+00  0.0000E+00  0.0000E+00  0.0000E+00  0.0000E+00
     -1.304  0.1416E+00  0.1346E-01  0.1346E-01  0.1346E-01  0.0000E+00  0.0000E+00  0.0000E+00  0.0000E+00  0.0000E+00
     -1.224  0.9132E-01  0.1077E-01  0.1077E-01  0.1077E-01  0.0000E+00  0.0000E+00  0.0000E+00  0.0000E+00  0.0000E+00
     -1.145  0.1614E+00  0.2414E-01  0.2414E-01  0.2414E-01  0.0000E+00  0.0000E+00  0.0000E+00  0.0000E+00  0.0000E+00
     -1.065  0.2861E+00  0.4573E-01  0.4573E-01  0.4573E-01  0.0000E+00  0.0000E+00  0.0000E+00  0.0000E+00  0.0000E+00
     -0.985  0.1819E+00  0.3094E-01  0.3094E-01  0.3094E-01  0.0000E+00  0.0000E+00  0.0000E+00  0.0000E+00  0.0000E+00
     -0.905  0.1591E+00  0.2555E-01  0.2555E-01  0.2555E-01  0.0000E+00  0.0000E+00  0.0000E+00  0.0000E+00  0.0000E+00
     -0.826  0.1485E+00  0.2328E-01  0.2328E-01  0.2328E-01  0.0000E+00  0.0000E+00  0.0000E+00  0.0000E+00  0.0000E+00
     -0.746  0.1187E+00  0.1941E-01  0.1941E-01  0.1941E-01  0.0000E+00  0.0000E+00  0.0000E+00  0.0000E+00  0.0000E+00
     -0.666  0.1203E+00  0.1973E-01  0.1973E-01  0.1973E-01  0.0000E+00  0.0000E+00  0.0000E+00  0.0000E+00  0.0000E+00
     -0.586  0.9580E-01  0.1578E-01  0.1578E-01  0.1578E-01  0.0000E+00  0.0000E+00  0.0000E+00  0.0000E+00  0.0000E+00
     -0.507  0.1035E+00  0.1688E-01  0.1688E-01  0.1688E-01  0.0000E+00  0.0000E+00  0.0000E+00  0.0000E+00  0.0000E+00
     -0.427  0.8820E-01  0.1537E-01  0.1537E-01  0.1537E-01  0.0000E+00  0.0000E+00  0.0000E+00  0.0000E+00  0.0000E+00
     -0.347  0.8800E-01  0.1505E-01  0.1505E-01  0.1505E-01  0.0000E+00  0.0000E+00  0.0000E+00  0.0000E+00  0.0000E+00
     -0.267  0.7240E-01  0.1247E-01  0.1247E-01  0.1247E-01  0.0000E+00  0.0000E+00  0.0000E+00  0.0000E+00  0.0000E+00
     -0.188  0.9278E-01  0.1661E-01  0.1661E-01  0.1661E-01  0.0000E+00  0.0000E+00  0.0000E+00  0.0000E+00  0.0000E+00
     -0.108  0.5626E-01  0.9965E-02  0.9965E-02  0.9965E-02  0.0000E+00  0.0000E+00  0.0000E+00  0.0000E+00  0.0000E+00
     -0.028  0.7757E-01  0.1469E-01  0.1469E-01  0.1469E-01  0.0000E+00  0.0000E+00  0.0000E+00  0.0000E+00  0.0000E+00
      0.052  0.5560E-01  0.9800E-02  0.9800E-02  0.9800E-02  0.0000E+00  0.0000E+00  0.0000E+00  0.0000E+00  0.0000E+00
      0.131  0.6590E-01  0.1312E-01  0.1312E-01  0.1312E-01  0.0000E+00  0.0000E+00  0.0000E+00  0.0000E+00  0.0000E+00
      0.211  0.5845E-01  0.1076E-01  0.1076E-01  0.1076E-01  0.0000E+00  0.0000E+00  0.0000E+00  0.0000E+00  0.0000E+00
      0.291  0.5198E-01  0.1081E-01  0.1081E-01  0.1081E-01  0.0000E+00  0.0000E+00  0.0000E+00  0.0000E+00  0.0000E+00
      0.371  0.5059E-01  0.9631E-02  0.9631E-02  0.9631E-02  0.0000E+00  0.0000E+00  0.0000E+00  0.0000E+00  0.0000E+00
      0.450  0.5671E-01  0.1214E-01  0.1214E-01  0.1214E-01  0.0000E+00  0.0000E+00  0.0000E+00  0.0000E+00  0.0000E+00
      0.530  0.3876E-01  0.7551E-02  0.7551E-02  0.7551E-02  0.0000E+00  0.0000E+00  0.0000E+00  0.0000E+00  0.0000E+00
      0.610  0.5588E-01  0.1225E-01  0.1225E-01  0.1225E-01  0.0000E+00  0.0000E+00  0.0000E+00  0.0000E+00  0.0000E+00
      0.690  0.2836E-01  0.5688E-02  0.5688E-02  0.5688E-02  0.0000E+00  0.0000E+00  0.0000E+00  0.0000E+00  0.0000E+00
      0.769  0.5067E-01  0.1207E-01  0.1207E-01  0.1207E-01  0.0000E+00  0.0000E+00  0.0000E+00  0.0000E+00  0.0000E+00
      0.849  0.3709E-01  0.7236E-02  0.7236E-02  0.7236E-02  0.0000E+00  0.0000E+00  0.0000E+00  0.0000E+00  0.0000E+00
      0.929  0.3980E-01  0.1019E-01  0.1019E-01  0.1019E-01  0.0000E+00  0.0000E+00  0.0000E+00  0.0000E+00  0.0000E+00
      1.009  0.2497E-01  0.5184E-02  0.5184E-02  0.5184E-02  0.0000E+00  0.0000E+00  0.0000E+00  0.0000E+00  0.0000E+00
      1.089  0.4582E-01  0.1143E-01  0.1143E-01  0.1143E-01  0.0000E+00  0.0000E+00  0.0000E+00  0.0000E+00  0.0000E+00
      1.168  0.2462E-01  0.5737E-02  0.5737E-02  0.5737E-02  0.0000E+00  0.0000E+00  0.0000E+00  0.0000E+00  0.0000E+00
      1.248  0.3331E-01  0.8087E-02  0.8087E-02  0.8087E-02  0.0000E+00  0.0000E+00  0.0000E+00  0.0000E+00  0.0000E+00
      1.328  0.2327E-01  0.9563E-02  0.9563E-02  0.9563E-02  0.0000E+00  0.0000E+00  0.0000E+00  0.0000E+00  0.0000E+00
      1.408  0.2814E-01  0.2449E-01  0.2449E-01  0.2449E-01  0.0000E+00  0.0000E+00  0.0000E+00  0.0000E+00  0.0000E+00
      1.487  0.3706E-01  0.3757E-01  0.3757E-01  0.3757E-01  0.0000E+00  0.0000E+00  0.0000E+00  0.0000E+00  0.0000E+00
      1.567  0.2540E-01  0.4685E-01  0.4685E-01  0.4685E-01  0.0000E+00  0.0000E+00  0.0000E+00  0.0000E+00  0.0000E+00
      1.647  0.3089E-01  0.6238E-01  0.6238E-01  0.6238E-01  0.0000E+00  0.0000E+00  0.0000E+00  0.0000E+00  0.0000E+00
      1.727  0.3082E-01  0.5898E-01  0.5898E-01  0.5898E-01  0.0000E+00  0.0000E+00  0.0000E+00  0.0000E+00  0.0000E+00
      1.806  0.3283E-01  0.5396E-01  0.5396E-01  0.5396E-01  0.0000E+00  0.0000E+00  0.0000E+00  0.0000E+00  0.0000E+00
      1.886  0.3608E-01  0.5668E-01  0.5668E-01  0.5668E-01  0.0000E+00  0.0000E+00  0.0000E+00  0.0000E+00  0.0000E+00
      1.966  0.2880E-01  0.4883E-01  0.4883E-01  0.4883E-01  0.0000E+00  0.0000E+00  0.0000E+00  0.0000E+00  0.0000E+00
      2.046  0.3402E-01  0.5393E-01  0.5393E-01  0.5393E-01  0.0000E+00  0.0000E+00  0.0000E+00  0.0000E+00  0.0000E+00
      2.125  0.2676E-01  0.5009E-01  0.5009E-01  0.5009E-01  0.0000E+00  0.0000E+00  0.0000E+00  0.0000E+00  0.0000E+00
      2.205  0.3107E-01  0.5255E-01  0.5255E-01  0.5255E-01  0.0000E+00  0.0000E+00  0.0000E+00  0.0000E+00  0.0000E+00
      2.285  0.3760E-01  0.6147E-01  0.6147E-01  0.6147E-01  0.0000E+00  0.0000E+00  0.0000E+00  0.0000E+00  0.0000E+00
      2.365  0.2243E-01  0.4603E-01  0.4603E-01  0.4603E-01  0.0000E+00  0.0000E+00  0.0000E+00  0.0000E+00  0.0000E+00
      2.444  0.3341E-01  0.6535E-01  0.6535E-01  0.6535E-01  0.0000E+00  0.0000E+00  0.0000E+00  0.0000E+00  0.0000E+00
      2.524  0.2346E-01  0.6023E-01  0.6023E-01  0.6023E-01  0.0000E+00  0.0000E+00  0.0000E+00  0.0000E+00  0.0000E+00
      2.604  0.2409E-01  0.5658E-01  0.5658E-01  0.5658E-01  0.0000E+00  0.0000E+00  0.0000E+00  0.0000E+00  0.0000E+00
      2.684  0.3443E-01  0.7168E-01  0.7168E-01  0.7168E-01  0.0000E+00  0.0000E+00  0.0000E+00  0.0000E+00  0.0000E+00
      2.763  0.2767E-01  0.8043E-01  0.8043E-01  0.8043E-01  0.0000E+00  0.0000E+00  0.0000E+00  0.0000E+00  0.0000E+00
      2.843  0.2096E-01  0.7821E-01  0.7821E-01  0.7821E-01  0.0000E+00  0.0000E+00  0.0000E+00  0.0000E+00  0.0000E+00
      2.923  0.2214E-01  0.9020E-01  0.9020E-01  0.9020E-01  0.0000E+00  0.0000E+00  0.0000E+00  0.0000E+00  0.0000E+00
      3.003  0.2268E-01  0.8821E-01  0.8821E-01  0.8821E-01  0.0000E+00  0.0000E+00  0.0000E+00  0.0000E+00  0.0000E+00
      3.082  0.2626E-01  0.9130E-01  0.9130E-01  0.9130E-01  0.0000E+00  0.0000E+00  0.0000E+00  0.0000E+00  0.0000E+00
      3.162  0.2244E-01  0.9045E-01  0.9045E-01  0.9045E-01  0.0000E+00  0.0000E+00  0.0000E+00  0.0000E+00  0.0000E+00
      3.242  0.1842E-01  0.8399E-01  0.8399E-01  0.8399E-01  0.0000E+00  0.0000E+00  0.0000E+00  0.0000E+00  0.0000E+00
      3.322  0.1683E-01  0.8374E-01  0.8374E-01  0.8374E-01  0.0000E+00  0.0000E+00  0.0000E+00  0.0000E+00  0.0000E+00
      3.402  0.1717E-01  0.8595E-01  0.8595E-01  0.8595E-01  0.0000E+00  0.0000E+00  0.0000E+00  0.0000E+00  0.0000E+00
      3.481  0.2316E-01  0.9396E-01  0.9396E-01  0.9396E-01  0.0000E+00  0.0000E+00  0.0000E+00  0.0000E+00  0.0000E+00
      3.561  0.1622E-01  0.7363E-01  0.7363E-01  0.7363E-01  0.0000E+00  0.0000E+00  0.0000E+00  0.0000E+00  0.0000E+00
      3.641  0.1496E-01  0.9236E-01  0.9236E-01  0.9236E-01  0.0000E+00  0.0000E+00  0.0000E+00  0.0000E+00  0.0000E+00
      3.721  0.1081E-01  0.7698E-01  0.7698E-01  0.7698E-01  0.0000E+00  0.0000E+00  0.0000E+00  0.0000E+00  0.0000E+00
      3.800  0.1659E-01  0.8419E-01  0.8419E-01  0.8419E-01  0.0000E+00  0.0000E+00  0.0000E+00  0.0000E+00  0.0000E+00
      3.880  0.1236E-01  0.8372E-01  0.8372E-01  0.8372E-01  0.0000E+00  0.0000E+00  0.0000E+00  0.0000E+00  0.0000E+00
      3.960  0.1408E-01  0.8164E-01  0.8164E-01  0.8164E-01  0.0000E+00  0.0000E+00  0.0000E+00  0.0000E+00  0.0000E+00
      4.040  0.1136E-01  0.8182E-01  0.8182E-01  0.8182E-01  0.0000E+00  0.0000E+00  0.0000E+00  0.0000E+00  0.0000E+00
      4.119  0.9195E-02  0.7243E-01  0.7243E-01  0.7243E-01  0.0000E+00  0.0000E+00  0.0000E+00  0.0000E+00  0.0000E+00
      4.199  0.8666E-02  0.8890E-01  0.8890E-01  0.8890E-01  0.0000E+00  0.0000E+00  0.0000E+00  0.0000E+00  0.0000E+00
      4.279  0.9536E-02  0.7213E-01  0.7213E-01  0.7213E-01  0.0000E+00  0.0000E+00  0.0000E+00  0.0000E+00  0.0000E+00
      4.359  0.6328E-02  0.7700E-01  0.7700E-01  0.7700E-01  0.0000E+00  0.0000E+00  0.0000E+00  0.0000E+00  0.0000E+00
      4.438  0.9300E-02  0.7941E-01  0.7941E-01  0.7941E-01  0.0000E+00  0.0000E+00  0.0000E+00  0.0000E+00  0.0000E+00
      4.518  0.6119E-02  0.6647E-01  0.6647E-01  0.6647E-01  0.0000E+00  0.0000E+00  0.0000E+00  0.0000E+00  0.0000E+00
      4.598  0.3461E-02  0.5090E-01  0.5090E-01  0.5090E-01  0.0000E+00  0.0000E+00  0.0000E+00  0.0000E+00  0.0000E+00
      4.678  0.5267E-02  0.5003E-01  0.5003E-01  0.5003E-01  0.0000E+00  0.0000E+00  0.0000E+00  0.0000E+00  0.0000E+00
      4.757  0.3983E-02  0.4063E-01  0.4063E-01  0.4063E-01  0.0000E+00  0.0000E+00  0.0000E+00  0.0000E+00  0.0000E+00
      4.837  0.3863E-02  0.3832E-01  0.3832E-01  0.3832E-01  0.0000E+00  0.0000E+00  0.0000E+00  0.0000E+00  0.0000E+00
      4.917  0.3784E-02  0.3713E-01  0.3713E-01  0.3713E-01  0.0000E+00  0.0000E+00  0.0000E+00  0.0000E+00  0.0000E+00
      4.997  0.1789E-02  0.2806E-01  0.2806E-01  0.2806E-01  0.0000E+00  0.0000E+00  0.0000E+00  0.0000E+00  0.0000E+00
      5.076  0.1495E-02  0.2590E-01  0.2590E-01  0.2590E-01  0.0000E+00  0.0000E+00  0.0000E+00  0.0000E+00  0.0000E+00
      5.156  0.2184E-02  0.2524E-01  0.2524E-01  0.2524E-01  0.0000E+00  0.0000E+00  0.0000E+00  0.0000E+00  0.0000E+00