    2    2    1    1
  0.2044253E+02  0.3866873E-09  0.3866873E-09  0.3866873E-09  0.5000000E-15
  1.000000000000000E-004
  CAR 
 Si FCC                                  
      8    752      8
 
  0.0000000E+00  0.0000000E+00  0.0000000E+00  0.3703704E-04
      1         -6.198539   1.000000
      2          5.616561   1.000000
      3          5.616561   1.000000
      4          5.616561   1.000000
      5          8.173649   0.000000
      6          8.173649   0.000000
      7          8.173649   0.000000
      8          8.751338   0.000000
 
  0.3333333E-01  0.0000000E+00  0.0000000E+00  0.2962963E-03
      1         -6.184231   1.000000
      2          5.446900   1.000000
      3          5.592066   1.000000
      4          5.592066   1.000000
      5          8.207207   0.000000
      6          8.209505   0.000000
      7          8.209505   0.000000
      8          8.862332   0.000000
 
  0.6666667E-01  0.0000000E+00  0.0000000E+00  0.2962963E-03
      1         -6.141303   1.000000
      2          5.023593   1.000000
      3          5.523518   1.000000
      4          5.523518   1.000000
      5          8.209052   0.000000
      6          8.310468   0.000000
      7          8.310468   0.000000
      8          9.212085   0.000000
 
  0.1000000E+00  0.0000000E+00  0.0000000E+00  0.2962963E-03
      1         -6.069970   1.000000
      2          4.474558   1.000000
      3          5.422780   1.000000
      4          5.422780   1.000000
      5          8.139695   0.000000
      6          8.459402   0.000000
      7          8.459402   0.000000
      8          9.721259   0.000000
 
  0.1333333E+00  0.0000000E+00  0.0000000E+00  0.2962963E-03
      1         -5.970649   1.000000
      2          3.872823   1.000000
      3          5.303152   1.000000
      4          5.303152   1.000000
      5          8.030430   0.000000
      6          8.633761   0.000000
      7          8.633761   0.000000
      8         10.297340   0.000000
 
  0.1666667E+00  0.0000000E+00  0.0000000E+00  0.2962963E-03
      1         -5.843877   1.000000
      2          3.253480   1.000000
      3          5.175831   1.000000
      4          5.175832   1.000000
      5          7.902777   0.000000
      6          8.809046   0.000000
      7          8.809046   0.000000
      8         10.895768   0.000000
 
  0.2000000E+00  0.0000000E+00  0.0000000E+00  0.2962963E-03
      1         -5.690524   1.000000
      2          2.634666   1.000000
      3          5.049025   1.000000
      4          5.049025   1.000000
      5          7.769524   0.000000
      6          8.961271   0.000000
      7          8.961271   0.000000
      8         11.495805   0.000000
 
  0.2333333E+00  0.0000000E+00  0.0000000E+00  0.2962963E-03
      1         -5.511889   1.000000
      2          2.027251   1.000000
      3          4.928348   1.000000
      4          4.928348   1.000000
      5          7.638925   0.000000
      6          9.071163   0.000000
      7          9.071163   0.000000
      8         12.084051   0.000000
 
  0.2666667E+00  0.0000000E+00  0.0000000E+00  0.2962963E-03
      1         -5.309809   1.000000
      2          1.438985   1.000000
      3          4.817508   1.000000
      4          4.817508   1.000000
      5          7.516482   0.000000
      6          9.129929   0.000000
      7          9.129929   0.000000
      8         12.641427   0.000000
 
  0.3000000E+00  0.0000000E+00  0.0000000E+00  0.2962963E-03
      1         -5.087135   1.000000
      2          0.876557   1.000000
      3          4.718922   1.000000
      4          4.718922   1.000000
      5          7.405894   0.000000
      6          9.141823   0.000000
      7          9.141823   0.000000
      8         13.117719   0.000000
 
  0.3333333E+00  0.0000000E+00  0.0000000E+00  0.2962963E-03
      1         -4.848412   1.000000
      2          0.347033   1.000000
      3          4.634095   1.000000
      4          4.634095   1.000000
      5          7.309620   0.000000
      6          9.120203   0.000000
      7          9.120203   0.000000
      8         13.400852   0.000000
 
  0.3666667E+00  0.0000000E+00  0.0000000E+00  0.2962963E-03
      1         -4.600972   1.000000
      2         -0.140348   1.000000
      3          4.563955   1.000000
      4          4.563955   1.000000
      5          7.229285   0.000000
      6          9.080838   0.000000
      7          9.080838   0.000000
      8         13.459801   0.000000
 
  0.4000000E+00  0.0000000E+00  0.0000000E+00  0.2962963E-03
      1         -4.357337   1.000000
      2         -0.571736   1.000000
      3          4.509056   1.000000
      4          4.509056   1.000000
      5          7.165979   0.000000
      6          9.037381   0.000000
      7          9.037381   0.000000
      8         13.422210   0.000000
 
  0.4333333E+00  0.0000000E+00  0.0000000E+00  0.2962963E-03
      1         -4.138947   1.000000
      2         -0.924874   1.000000
      3          4.469690   1.000000
      4          4.469690   1.000000
      5          7.120359   0.000000
      6          8.999885   0.000000
      7          8.999885   0.000000
      8         13.370244   0.000000
 
  0.4666667E+00  0.0000000E+00  0.0000000E+00  0.2962963E-03
      1         -3.979596   1.000000
      2         -1.165278   1.000000
      3          4.446032   1.000000
      4          4.446032   1.000000
      5          7.092852   0.000000
      6          8.974948   0.000000
      7          8.974948   0.000000
      8         13.332623   0.000000
 
  0.5000000E+00  0.0000000E+00  0.0000000E+00  0.1481481E-03
      1         -3.919699   1.000000
      2         -1.252214   1.000000
      3          4.438137   1.000000
      4          4.438137   1.000000
      5          7.083656   0.000000
      6          8.966242   0.000000
      7          8.966243   0.000000
      8         13.319246   0.000000
 
  0.3333333E-01  0.3333333E-01  0.0000000E+00  0.2222222E-03
      1         -6.179452   1.000000
      2          5.481952   1.000000
      3          5.537066   1.000000
      4          5.537066   1.000000
      5          8.126612   0.000000
      6          8.276694   0.000000
      7          8.276694   0.000000
      8          8.882763   0.000000
 
  0.6666667E-01  0.3333333E-01  0.0000000E+00  0.8888889E-03
      1         -6.146044   1.000000
      2          5.151255   1.000000
      3          5.443568   1.000000
      4          5.513758   1.000000
      5          8.119967   0.000000
      6          8.346897   0.000000
      7          8.404130   0.000000
      8          9.133807   0.000000
 
  0.1000000E+00  0.3333333E-01  0.0000000E+00  0.8888889E-03
      1         -6.084157   1.000000
      2          4.643782   1.000000
      3          5.324958   1.000000
      4          5.457687   1.000000
      5          8.158962   0.000000
      6          8.354622   0.000000
      7          8.573730   0.000000
      8          9.587380   0.000000
 
  0.1333333E+00  0.3333333E-01  0.0000000E+00  0.8888889E-03
      1         -5.994136   1.000000
      2          4.062596   1.000000
      3          5.193968   1.000000
      4          5.364709   1.000000
      5          8.133959   0.000000
      6          8.424792   0.000000
      7          8.764165   0.000000
      8         10.129790   0.000000
 
  0.1666667E+00  0.3333333E-01  0.0000000E+00  0.8888889E-03
      1         -5.876458   1.000000
      2          3.452402   1.000000
      3          5.060561   1.000000
      4          5.248828   1.000000
      5          8.034035   0.000000
      6          8.571293   0.000000
      7          8.952727   0.000000
      8         10.692327   0.000000
 
  0.2000000E+00  0.3333333E-01  0.0000000E+00  0.8888889E-03
      1         -5.731879   1.000000
      2          2.836134   1.000000
      3          4.931821   1.000000
      4          5.122149   1.000000
      5          7.911030   0.000000
      6          8.729644   0.000000
      7          9.116577   0.000000
      8         11.229587   0.000000
 
  0.2333333E+00  0.3333333E-01  0.0000000E+00  0.8888889E-03
      1         -5.561538   1.000000
      2          2.226978   1.000000
      3          4.812547   1.000000
      4          4.993537   1.000000
      5          7.784050   0.000000
      6          8.864499   0.000000
      7          9.236085   0.000000
      8         11.689307   0.000000
 
  0.2666667E+00  0.3333333E-01  0.0000000E+00  0.8888889E-03
      1         -5.367048   1.000000
      2          1.633791   1.000000
      3          4.705899   1.000000
      4          4.869045   1.000000
      5          7.661761   0.000000
      6          8.956080   0.000000
      7          9.300632   0.000000
      8         12.046790   0.000000
 
  0.3000000E+00  0.3333333E-01  0.0000000E+00  0.8888889E-03
      1         -5.150871   1.000000
      2          1.063667   1.000000
      3          4.613899   1.000000
      4          4.752661   1.000000
      5          7.549187   0.000000
      6          9.000107   0.000000
      7          9.312388   0.000000
      8         12.372376   0.000000
 
  0.3333333E+00  0.3333333E-01  0.0000000E+00  0.8888889E-03
      1         -4.916881   1.000000
      2          0.523534   1.000000
      3          4.537788   1.000000
      4          4.647034   1.000000
      5          7.449503   0.000000
      6          9.005849   0.000000
      7          9.283813   0.000000
      8         12.725021   0.000000
 
  0.3666667E+00  0.3333333E-01  0.0000000E+00  0.8888889E-03
      1         -4.671276   1.000000
      2          0.021776   1.000000
      3          4.478259   1.000000
      4          4.553915   1.000000
      5          7.364767   0.000000
      6          8.988827   0.000000
      7          9.231127   0.000000
      8         13.084295   0.000000
 
  0.4000000E+00  0.3333333E-01  0.0000000E+00  0.8888889E-03
      1         -4.424496   1.000000
      2         -0.429605   1.000000
      3          4.435621   1.000000
      4          4.474501   1.000000
      5          7.296326   0.000000
      6          8.964055   0.000000
      7          9.169136   0.000000
      8         13.329340   0.000000
 
  0.4333333E+00  0.3333333E-01  0.0000000E+00  0.8888889E-03
      1         -4.194518   1.000000
      2         -0.811615   1.000000
      3          4.409630   1.000000
      4          4.409917   1.000000
      5          7.245046   0.000000
      6          8.943048   0.000000
      7          9.109189   0.000000
      8         13.390814   0.000000
 
  0.4666667E+00  0.3333333E-01  0.0000000E+00  0.8888889E-03
      1         -4.010891   1.000000
      2         -1.093957   1.000000
      3          4.359948   1.000000
      4          4.401003   1.000000
      5          7.211466   0.000000
      6          8.933497   0.000000
      7          9.059093   0.000000
      8         13.383901   0.000000
 
  0.5000000E+00  0.3333333E-01  0.0000000E+00  0.8888889E-03
      1         -3.913793   1.000000
      2         -1.235970   1.000000
      3          4.325973   1.000000
      4          4.408616   1.000000
      5          7.195897   0.000000
      6          8.939827   0.000000
      7          9.023629   0.000000
      8         13.374383   0.000000
 
 -0.4666667E+00  0.3333333E-01  0.0000000E+00  0.8888889E-03
      1         -3.934094   1.000000
      2         -1.206662   1.000000
      3          4.308152   1.000000
      4          4.432407   1.000000
      5          7.198479   0.000000
      6          8.963776   0.000000
      7          9.005015   0.000000
      8         13.379829   0.000000
 
 -0.4333333E+00  0.3333333E-01  0.0000000E+00  0.8888889E-03
      1         -4.064642   1.000000
      2         -1.013200   1.000000
      3          4.306874   1.000000
      4          4.471940   1.000000
      5          7.219198   0.000000
      6          9.003121   0.000000
      7          9.004698   0.000000
      8         13.400514   0.000000
 
 -0.4000000E+00  0.3333333E-01  0.0000000E+00  0.8888889E-03
      1         -4.267843   1.000000
      2         -0.693412   1.000000
      3          4.322470   1.000000
      4          4.526725   1.000000
      5          7.257909   0.000000
      6          9.015382   0.000000
      7          9.059557   0.000000
      8         13.421886   0.000000
 
 -0.3666667E+00  0.3333333E-01  0.0000000E+00  0.8888889E-03
      1         -4.506066   1.000000
      2         -0.285526   1.000000
      3          4.355173   1.000000
      4          4.596185   1.000000
      5          7.314272   0.000000
      6          9.036415   0.000000
      7          9.122572   0.000000
      8         13.397635   0.000000
 
 -0.3333333E+00  0.3333333E-01  0.0000000E+00  0.8888889E-03
      1         -4.753989   1.000000
      2          0.184343   1.000000
      3          4.405093   1.000000
      4          4.679582   1.000000
      5          7.387710   0.000000
      6          9.057459   0.000000
      7          9.184630   0.000000
      8         13.234380   0.000000
 
 -0.3000000E+00  0.3333333E-01  0.0000000E+00  0.8888889E-03
      1         -4.996614   1.000000
      2          0.699978   1.000000
      3          4.472138   1.000000
      4          4.775920   1.000000
      5          7.477268   0.000000
      6          9.066070   0.000000
      7          9.232717   0.000000
      8         12.914471   0.000000
 
 -0.2666667E+00  0.3333333E-01  0.0000000E+00  0.8888889E-03
      1         -5.225208   1.000000
      2          1.250866   1.000000
      3          4.555942   1.000000
      4          4.883819   1.000000
      5          7.581503   0.000000
      6          9.047196   0.000000
      7          9.250348   0.000000
      8         12.524601   0.000000
 
 -0.2333333E+00  0.3333333E-01  0.0000000E+00  0.8888889E-03
      1         -5.434492   1.000000
      2          1.829273   1.000000
      3          4.655717   1.000000
      4          5.001230   1.000000
      5          7.698209   0.000000
      6          8.987194   0.000000
      7          9.220673   0.000000
      8         12.094700   0.000000
 
 -0.2000000E+00  0.3333333E-01  0.0000000E+00  0.8888889E-03
      1         -5.621146   1.000000
      2          2.428302   1.000000
      3          4.770127   1.000000
      4          5.125112   1.000000
      5          7.824075   0.000000
      6          8.880634   0.000000
      7          9.133155   0.000000
      8         11.613026   0.000000
 
 -0.1666667E+00  0.3333333E-01  0.0000000E+00  0.8888889E-03
      1         -5.783046   1.000000
      2          3.040276   1.000000
      3          4.897032   1.000000
      4          5.250898   1.000000
      5          7.954120   0.000000
      6          8.735312   0.000000
      7          8.990231   0.000000
      8         11.082299   0.000000
 
 -0.1333333E+00  0.3333333E-01  0.0000000E+00  0.8888889E-03
      1         -5.918753   1.000000
      2          3.654822   1.000000
      3          5.033173   1.000000
      4          5.371862   1.000000
      5          8.080764   0.000000
      6          8.570691   0.000000
      7          8.807750   0.000000
      8         10.523767   0.000000
 
 -0.1000000E+00  0.3333333E-01  0.0000000E+00  0.8888889E-03
      1         -6.027269   1.000000
      2          4.255112   1.000000
      3          5.173973   1.000000
      4          5.478488   1.000000
      5          8.191951   0.000000
      6          8.412056   0.000000
      7          8.609674   0.000000
      8          9.965358   0.000000
 
 -0.6666667E-01  0.3333333E-01  0.0000000E+00  0.8888889E-03
      1         -6.107952   1.000000
      2          4.808815   1.000000
      3          5.314372   1.000000
      4          5.558587   1.000000
      5          8.265442   0.000000
      6          8.285313   0.000000
      7          8.425401   0.000000
      8          9.448511   0.000000
 
 -0.3333333E-01  0.3333333E-01  0.0000000E+00  0.4444444E-03
      1         -6.160366   1.000000
      2          5.242815   1.000000
      3          5.457532   1.000000
      4          5.599335   1.000000
      5          8.212998   0.000000
      6          8.247678   0.000000
      7          8.305506   0.000000
      8          9.049892   0.000000
 
  0.6666667E-01  0.6666667E-01  0.0000000E+00  0.2222222E-03
      1         -6.122151   1.000000
      2          5.132758   1.000000
      3          5.330511   1.000000
      4          5.330511   1.000000
      5          7.995059   0.000000
      6          8.553747   0.000000
      7          8.553747   0.000000
      8          9.212356   0.000000
 
  0.1000000E+00  0.6666667E-01  0.0000000E+00  0.8888889E-03
      1         -6.069742   1.000000
      2          4.743634   1.000000
      3          5.197948   1.000000
      4          5.279879   1.000000
      5          7.956713   0.000000
      6          8.640101   0.000000
      7          8.741589   0.000000
      8          9.533989   0.000000
 
  0.1333333E+00  0.6666667E-01  0.0000000E+00  0.8888889E-03
      1         -5.989099   1.000000
      2          4.209257   1.000000
      3          5.057709   1.000000
      4          5.223208   1.000000
      5          7.992451   0.000000
      6          8.617766   0.000000
      7          8.947968   0.000000
      8         10.005391   0.000000
 
  0.1666667E+00  0.6666667E-01  0.0000000E+00  0.8888889E-03
      1         -5.880626   1.000000
      2          3.625064   1.000000
      3          4.918717   1.000000
      4          5.128480   1.000000
      5          8.053186   0.000000
      6          8.587172   0.000000
      7          9.151908   0.000000
      8         10.486802   0.000000
 
  0.2000000E+00  0.6666667E-01  0.0000000E+00  0.8888889E-03
      1         -5.744982   1.000000
      2          3.023091   1.000000
      3          4.787273   1.000000
      4          5.007902   1.000000
      5          8.068836   0.000000
      6          8.615459   0.000000
      7          9.331517   0.000000
      8         10.884845   0.000000
 
  0.2333333E+00  0.6666667E-01  0.0000000E+00  0.8888889E-03
      1         -5.583168   1.000000
      2          2.420713   1.000000
      3          4.667656   1.000000
      4          4.874394   1.000000
      5          8.015128   0.000000
      6          8.706064   0.000000
      7          9.466512   0.000000
      8         11.156924   0.000000
 
  0.2666667E+00  0.6666667E-01  0.0000000E+00  0.8888889E-03
      1         -5.396599   1.000000
      2          1.828986   1.000000
      3          4.562724   1.000000
      4          4.737598   1.000000
      5          7.925463   0.000000
      6          8.803841   0.000000
      7          9.543858   0.000000
      8         11.370867   0.000000
 
  0.3000000E+00  0.6666667E-01  0.0000000E+00  0.8888889E-03
      1         -5.187398   1.000000
      2          1.256152   1.000000
      3          4.474311   1.000000
      4          4.604083   1.000000
      5          7.827008   0.000000
      6          8.870354   0.000000
      7          9.562824   0.000000
      8         11.618422   0.000000
 
  0.3333333E+00  0.6666667E-01  0.0000000E+00  0.8888889E-03
      1         -4.958872   1.000000
      2          0.709532   1.000000
      3          4.403554   1.000000
      4          4.478205   1.000000
      5          7.732504   0.000000
      6          8.898273   0.000000
      7          9.534257   0.000000
      8         11.936464   0.000000
 
  0.3666667E+00  0.6666667E-01  0.0000000E+00  0.8888889E-03
      1         -4.716268   1.000000
      2          0.197121   1.000000
      3          4.351071   1.000000
      4          4.362880   1.000000
      5          7.648143   0.000000
      6          8.898508   0.000000
      7          9.474486   0.000000
      8         12.319583   0.000000
 
  0.4000000E+00  0.6666667E-01  0.0000000E+00  0.8888889E-03
      1         -4.468296   1.000000
      2         -0.270380   1.000000
      3          4.260139   1.000000
      4          4.317107   1.000000
      5          7.577297   0.000000
      6          8.886710   0.000000
      7          9.399397   0.000000
      8         12.737423   0.000000
 
  0.4333333E+00  0.6666667E-01  0.0000000E+00  0.8888889E-03
      1         -4.229931   1.000000
      2         -0.676645   1.000000
      3          4.171459   1.000000
      4          4.301616   1.000000
      5          7.521960   0.000000
      6          8.876096   0.000000
      7          9.321649   0.000000
      8         13.126001   0.000000
 
  0.4666667E+00  0.6666667E-01  0.0000000E+00  0.8888889E-03
      1         -4.026509   1.000000
      2         -0.995451   1.000000
      3          4.097984   1.000000
      4          4.304316   1.000000
      5          7.483306   0.000000
      6          8.875717   0.000000
      7          9.250240   0.000000
      8         13.381334   0.000000
 
  0.5000000E+00  0.6666667E-01  0.0000000E+00  0.8888889E-03
      1         -3.895802   1.000000
      2         -1.188354   1.000000
      3          4.040657   1.000000
      4          4.324774   1.000000
      5          7.462028   0.000000
      6          8.890935   0.000000
      7          9.190998   0.000000
      8         13.485641   0.000000
 
 -0.4666667E+00  0.6666667E-01  0.0000000E+00  0.8888889E-03
      1         -3.875647   1.000000
      2         -1.217274   1.000000
      3          4.000286   1.000000
      4          4.362377   1.000000
      5          7.458459   0.000000
      6          8.924187   0.000000
      7          9.147090   0.000000
      8         13.520800   0.000000
 
 -0.4333333E+00  0.6666667E-01  0.0000000E+00  0.8888889E-03
      1         -3.973173   1.000000
      2         -1.075057   1.000000
      3          3.977595   1.000000
      4          4.416401   1.000000
      5          7.472695   0.000000
      6          8.975501   0.000000
      7          9.119333   0.000000
      8         13.526986   0.000000
 
 -0.4000000E+00  0.6666667E-01  0.0000000E+00  0.8888889E-03
      1         -4.157233   1.000000
      2         -0.793026   1.000000
      3          3.973221   1.000000
      4          4.485970   1.000000
      5          7.504610   0.000000
      6          9.042578   0.000000
      7          9.106154   0.000000
      8         13.491480   0.000000
 
 -0.3666667E+00  0.6666667E-01  0.0000000E+00  0.8888889E-03
      1         -4.387461   1.000000
      2         -0.412087   1.000000
      3          3.987700   1.000000
      4          4.570069   1.000000
      5          7.553874   0.000000
      6          9.103264   0.000000
      7          9.120500   0.000000
      8         13.357909   0.000000
 
 -0.3333333E+00  0.6666667E-01  0.0000000E+00  0.8888889E-03
      1         -4.634313   1.000000
      2          0.037334   1.000000
      3          4.021472   1.000000
      4          4.667448   1.000000
      5          7.619903   0.000000
      6          9.103075   0.000000
      7          9.201005   0.000000
      8         13.082183   0.000000
 
 -0.3000000E+00  0.6666667E-01  0.0000000E+00  0.8888889E-03
      1         -4.879873   1.000000
      2          0.536081   1.000000
      3          4.074859   1.000000
      4          4.776558   1.000000
      5          7.701775   0.000000
      6          9.094282   0.000000
      7          9.271452   0.000000
      8         12.714198   0.000000
 
 -0.2666667E+00  0.6666667E-01  0.0000000E+00  0.8888889E-03
      1         -5.113741   1.000000
      2          1.071834   1.000000
      3          4.148023   1.000000
      4          4.895351   1.000000
      5          7.798074   0.000000
      6          9.062630   0.000000
      7          9.314084   0.000000
      8         12.326369   0.000000
 
 -0.2333333E+00  0.6666667E-01  0.0000000E+00  0.8888889E-03
      1         -5.329766   1.000000
      2          1.635635   1.000000
      3          4.241006   1.000000
      4          5.021031   1.000000
      5          7.906699   0.000000
      6          8.994641   0.000000
      7          9.307584   0.000000
      8         11.952705   0.000000
 
 -0.2000000E+00  0.6666667E-01  0.0000000E+00  0.8888889E-03
      1         -5.524092   1.000000
      2          2.219470   1.000000
      3          4.353760   1.000000
      4          5.149635   1.000000
      5          8.024447   0.000000
      6          8.884596   0.000000
      7          9.233880   0.000000
      8         11.589603   0.000000
 
 -0.1666667E+00  0.6666667E-01  0.0000000E+00  0.8888889E-03
      1         -5.694266   1.000000
      2          2.814117   1.000000
      3          4.486429   1.000000
      4          5.275511   1.000000
      5          8.146449   0.000000
      6          8.740352   0.000000
      7          9.088984   0.000000
      8         11.206038   0.000000
 
 -0.1333333E+00  0.6666667E-01  0.0000000E+00  0.8888889E-03
      1         -5.838698   1.000000
      2          3.406142   1.000000
      3          4.640186   1.000000
      4          5.390630   1.000000
      5          8.265119   0.000000
      6          8.582293   0.000000
      7          8.887967   0.000000
      8         10.775210   0.000000
 
 -0.1000000E+00  0.6666667E-01  0.0000000E+00  0.8888889E-03
      1         -5.956247   1.000000
      2          3.971425   1.000000
      3          4.820242   1.000000
      4          5.484295   1.000000
      5          8.368172   0.000000
      6          8.437022   0.000000
      7          8.658891   0.000000
      8         10.305597   0.000000
 
 -0.6666667E-01  0.6666667E-01  0.0000000E+00  0.4444444E-03
      1         -6.046158   1.000000
      2          4.461055   1.000000
      3          5.042873   1.000000
      4          5.543976   1.000000
      5          8.331016   0.000000
      6          8.431495   0.000000
      7          8.439047   0.000000
      8          9.839645   0.000000
 
  0.1000000E+00  0.1000000E+00  0.0000000E+00  0.2222222E-03
      1         -6.026814   1.000000
      2          4.661030   1.000000
      3          5.055088   1.000000
      4          5.055088   1.000000
      5          7.801901   0.000000
      6          8.946016   0.000000
      7          8.946016   0.000000
      8          9.605874   0.000000
 
  0.1333333E+00  0.1000000E+00  0.0000000E+00  0.8888889E-03
      1         -5.955562   1.000000
      2          4.267713   1.000000
      3          4.907471   1.000000
      4          4.970005   1.000000
      5          7.744555   0.000000
      6          9.042316   0.000000
      7          9.168794   0.000000
      8          9.907506   0.000000
 
  0.1666667E+00  0.1000000E+00  0.0000000E+00  0.8888889E-03
      1         -5.856355   1.000000
      2          3.743158   1.000000
      3          4.763353   1.000000
      4          4.894868   1.000000
      5          7.775103   0.000000
      6          9.008508   0.000000
      7          9.390409   0.000000
      8         10.274675   0.000000
 
  0.2000000E+00  0.1000000E+00  0.0000000E+00  0.8888889E-03
      1         -5.729764   1.000000
      2          3.175099   1.000000
      3          4.628574   1.000000
      4          4.786573   1.000000
      5          7.856138   0.000000
      6          8.955320   0.000000
      7          9.589765   0.000000
      8         10.529823   0.000000
 
  0.2333333E+00  0.1000000E+00  0.0000000E+00  0.8888889E-03
      1         -5.576660   1.000000
      2          2.592931   1.000000
      3          4.507155   1.000000
      4          4.653213   1.000000
      5          7.937179   0.000000
      6          8.926041   0.000000
      7          9.745880   0.000000
      8         10.658070   0.000000
 
  0.2666667E+00  0.1000000E+00  0.0000000E+00  0.8888889E-03
      1         -5.398282   1.000000
      2          2.012455   1.000000
      3          4.401802   1.000000
      4          4.507328   1.000000
      5          7.976221   0.000000
      6          8.933625   0.000000
      7          9.842970   0.000000
      8         10.758224   0.000000
 
  0.3000000E+00  0.1000000E+00  0.0000000E+00  0.8888889E-03
      1         -5.196457   1.000000
      2          1.444344   1.000000
      3          4.314301   1.000000
      4          4.358739   1.000000
      5          7.964246   0.000000
      6          8.958595   0.000000
      7          9.876672   0.000000
      8         10.918823   0.000000
 
  0.3333333E+00  0.1000000E+00  0.0000000E+00  0.8888889E-03
      1         -4.974024   1.000000
      2          0.897122   1.000000
      3          4.214159   1.000000
      4          4.245773   1.000000
      5          7.919455   0.000000
      6          8.971970   0.000000
      7          9.855421   0.000000
      8         11.178119   0.000000
 
  0.3666667E+00  0.1000000E+00  0.0000000E+00  0.8888889E-03
      1         -4.735421   1.000000
      2          0.379076   1.000000
      3          4.078086   1.000000
      4          4.196868   1.000000
      5          7.862615   0.000000
      6          8.965095   0.000000
      7          9.795233   0.000000
      8         11.533741   0.000000
 
  0.4000000E+00  0.1000000E+00  0.0000000E+00  0.8888889E-03
      1         -4.487919   1.000000
      2         -0.099823   1.000000
      3          3.953588   1.000000
      4          4.167843   1.000000
      5          7.807437   0.000000
      6          8.946607   0.000000
      7          9.713018   0.000000
      8         11.963647   0.000000
 
  0.4333333E+00  0.1000000E+00  0.0000000E+00  0.8888889E-03
      1         -4.243959   1.000000
      2         -0.525259   1.000000
      3          3.842854   1.000000
      4          4.158675   1.000000
      5          7.761768   0.000000
      6          8.928548   0.000000
      7          9.622833   0.000000
      8         12.439832   0.000000
 