       N       E                     dE             d eps       ncg     rms          rms(c)
DAV:   1     0.730416899330E+01    0.73042E+01   -0.32800E+03 12040   0.769E+02
DAV:   2    -0.107652759658E+02   -0.18069E+02   -0.17408E+02 18216   0.823E+01
DAV:   3    -0.110168718571E+02   -0.25160E+00   -0.25160E+00 15272   0.121E+01
DAV:   4    -0.110180067688E+02   -0.11349E-02   -0.11349E-02 19496   0.911E-01
DAV:   5    -0.110180078895E+02   -0.11208E-05   -0.11208E-05 15768   0.229E-02    0.475E+00
DAV:   6    -0.109021740504E+02    0.11583E+00   -0.75730E-02 14656   0.144E+00    0.290E+00
DAV:   7    -0.108486220280E+02    0.53552E-01   -0.14538E-01 15512   0.213E+00    0.173E-01
DAV:   8    -0.108497101109E+02   -0.10881E-02   -0.37369E-03 13936   0.461E-01    0.734E-02
DAV:   9    -0.108499105519E+02   -0.20044E-03   -0.20153E-04 17896   0.111E-01    0.561E-02
DAV:  10    -0.108499350958E+02   -0.24544E-04   -0.28623E-05 14304   0.403E-02    0.864E-03
DAV:  11    -0.108499348378E+02    0.25801E-06   -0.59373E-07 19280   0.531E-03    0.217E-03
DAV:  12    -0.108499351657E+02   -0.32788E-06   -0.57140E-07 14024   0.604E-03    0.931E-04
DAV:  13    -0.108499351817E+02   -0.16071E-07   -0.20190E-09 20072   0.387E-04    0.200E-04
DAV:  14    -0.108499351856E+02   -0.39171E-08   -0.25077E-10 14328   0.140E-04    0.583E-05
DAV:  15    -0.108499351876E+02   -0.19851E-08   -0.21201E-11 11024   0.349E-05    0.109E-05
DAV:  16    -0.108499351872E+02    0.44599E-09   -0.14432E-12  8288   0.978E-06    0.336E-06
DAV:  17    -0.108499351870E+02    0.17371E-09   -0.30017E-13  7376   0.391E-06    0.110E-06
DAV:  18    -0.108499351871E+02   -0.46043E-10   -0.19291E-13  7064   0.158E-06
   1 F= -.10849935E+02 E0= -.10849935E+02  d E =-.399116E-21
