 vasp.6.4.2 20Jul23 (build Oct 16 2024 22:45:58) complex                        
  
 executed on             LinuxIFC date 2025.01.29  09:10:37
 running    8 mpi-ranks, on    1 nodes
 distrk:  each k-point on    8 cores,    1 groups
 distr:  one band on NCORE=   1 cores,    8 groups


--------------------------------------------------------------------------------------------------------


 INCAR:
   SYSTEM = Si FCC
   PREC = Accurate
   EDIFF = 1E-10
   EDIFFG = -1E-5
   ISMEAR = 0
   SIGMA = 0.03
   GGA = PE
   ENCUT = 520
   NSW = 0
   IBRION = -1
   ISIF = 0
   LWAVE = .FALSE.
   LCHARG = .FALSE.
   LORBIT = 11

 POTCAR:    PAW_PBE Si 05Jan2001                  
 -----------------------------------------------------------------------------
|                                                                             |
|           W    W    AA    RRRRR   N    N  II  N    N   GGGG   !!!           |
|           W    W   A  A   R    R  NN   N  II  NN   N  G    G  !!!           |
|           W    W  A    A  R    R  N N  N  II  N N  N  G       !!!           |
|           W WW W  AAAAAA  RRRRR   N  N N  II  N  N N  G  GGG   !            |
|           WW  WW  A    A  R   R   N   NN  II  N   NN  G    G                |
|           W    W  A    A  R    R  N    N  II  N    N   GGGG   !!!           |
|                                                                             |
|     For optimal performance we recommend to set                             |
|       NCORE = 2 up to number-of-cores-per-socket                            |
|     NCORE specifies how many cores store one orbital (NPAR=cpu/NCORE).      |
|     This setting can greatly improve the performance of VASP for DFT.       |
|     The default, NCORE=1 might be grossly inefficient on modern             |
|     multi-core architectures or massively parallel machines. Do your        |
|     own testing! More info at https://www.vasp.at/wiki/index.php/NCORE      |
|     Unfortunately you need to use the default for GW and RPA                |
|     calculations (for HF NCORE is supported but not extensively tested      |
|     yet).                                                                   |
|                                                                             |
 -----------------------------------------------------------------------------

 POTCAR:    PAW_PBE Si 05Jan2001                  
   SHA256 =  79d9987ad8750f624c4d6acb2a16d13abf6a777132adc04dc6c8399be72b42bb Si/POTCAR             
   COPYR  = (c) Copyright 05Jan2001 Georg Kresse                                                    
   COPYR  = This file is part of the software VASP. Any use, copying, and all other rights are regul
   COPYR  = If you do not have a valid VASP license, you may not use, copy or distribute this file. 
   VRHFIN =Si: s2p2                                                                                 
   LEXCH  = PE                                                                                      
   EATOM  =   103.0669 eV,    7.5752 Ry                                                             
                                                                                                    
   TITEL  = PAW_PBE Si 05Jan2001                                                                    
   LULTRA =        F    use ultrasoft PP ?                                                          
   IUNSCR =        1    unscreen: 0-lin 1-nonlin 2-no                                               
   RPACOR =    1.500    partial core radius                                                         
   POMASS =   28.085; ZVAL   =    4.000    mass and valenz                                          
   RCORE  =    1.900    outmost cutoff radius                                                       
   RWIGS  =    2.480; RWIGS  =    1.312    wigner-seitz radius (au A)                               
   ENMAX  =  245.345; ENMIN  =  184.009 eV                                                          
   ICORE  =        2    local potential                                                             
   LCOR   =        T    correct aug charges                                                         
   LPAW   =        T    paw PP                                                                      
   EAUG   =  322.069                                                                                
   DEXC   =    0.000                                                                                
   RMAX   =    1.950    core radius for proj-oper                                                   
   RAUG   =    1.300    factor for augmentation sphere                                              
   RDEP   =    1.993    radius for radial grids                                                     
   RDEPT  =    1.837    core radius for aug-charge                                                  
                                                                                                    
   Atomic configuration                                                                             
    6 entries                                                                                       
     n  l   j            E        occ.                                                              
     1  0  0.50     -1785.8828   2.0000                                                             
     2  0  0.50      -139.4969   2.0000                                                             
     2  1  1.50       -95.5546   6.0000                                                             
     3  0  0.50       -10.8127   2.0000                                                             
     3  1  0.50        -4.0811   2.0000                                                             
     3  2  1.50        -4.0817   0.0000                                                             
   Description                                                                                      
     l       E           TYP  RCUT    TYP  RCUT                                                     
     0    -10.8127223     23  1.900                                                                 
     0     -7.6451159     23  1.900                                                                 
     1     -4.0811372     23  1.900                                                                 
     1      2.4879257     23  1.900                                                                 
     2     -4.0817478      7  1.900                                                                 
  local pseudopotential read in
  partial core-charges read in
  partial kinetic energy density read in
  atomic valenz-charges read in
  non local Contribution for L=           0  read in
    real space projection operators read in
  non local Contribution for L=           0  read in
    real space projection operators read in
  non local Contribution for L=           1  read in
    real space projection operators read in
  non local Contribution for L=           1  read in
    real space projection operators read in
    PAW grid and wavefunctions read in
 
   number of l-projection  operators is LMAX  =           4
   number of lm-projection operators is LMMAX =           8
 
  PAW_PBE Si 05Jan2001                  :
 energy of atom  1       EATOM= -103.0669
 kinetic energy error for atom=    0.0005 (will be added to EATOM!!)
 
 
 POSCAR: Si [FCC,FCC,cF8]
  positions in direct lattice
  velocities in cartesian coordinates
 exchange correlation table for  LEXCH =        8
   RHO(1)=    0.500       N(1)  =     2000
   RHO(2)=  100.500       N(2)  =     4000

 VTST: version 4.1, (05/19/21)

 CHAIN: initializing optimizer
 
 OPT: Using VASP Dynamics algorithm
 CHAIN: Read ICHAIN            0
 
 POSCAR: Si [FCC,FCC,cF8]
  positions in direct lattice
  velocities in cartesian coordinates
 


--------------------------------------------------------------------------------------------------------


 ion  position               nearest neighbor table
   1  0.000  0.000  0.000-   2 2.37   2 2.37   2 2.37   2 2.37
   2  0.250  0.250  0.250-   1 2.37   1 2.37   1 2.37   1 2.37
 
  LATTYP: Found a face centered cubic cell.
 ALAT       =     5.4685839824
  
  Lattice vectors:
  
 A1 = (   0.0000000000,   2.7342919912,   2.7342919912)
 A2 = (   2.7342919912,   0.0000000000,   2.7342919912)
 A3 = (   2.7342919912,   2.7342919912,   0.0000000000)


Analysis of symmetry for initial positions (statically):
=====================================================================
 Subroutine PRICEL returns:
 Original cell was already a primitive cell.
 

 Routine SETGRP: Setting up the symmetry group for a 
 face centered cubic supercell.


 Subroutine GETGRP returns: Found 48 space group operations
 (whereof 24 operations were pure point group operations)
 out of a pool of 48 trial point group operations.


The static configuration has the point symmetry T_d .
 The point group associated with its full space group is O_h .


Analysis of symmetry for dynamics (positions and initial velocities):
=====================================================================
 Subroutine PRICEL returns:
 Original cell was already a primitive cell.
 

 Routine SETGRP: Setting up the symmetry group for a 
 face centered cubic supercell.


 Subroutine GETGRP returns: Found 48 space group operations
 (whereof 24 operations were pure point group operations)
 out of a pool of 48 trial point group operations.


The dynamic configuration has the point symmetry T_d .
 The point group associated with its full space group is O_h .


 Subroutine INISYM returns: Found 48 space group operations
 (whereof 24 operations are pure point group operations),
 and found     1 'primitive' translations


----------------------------------------------------------------------------------------

                                     Primitive cell                                     

  volume of cell :      40.8851

  direct lattice vectors                    reciprocal lattice vectors
     0.000000000  2.734291991  2.734291991    -0.182862694  0.182862694  0.182862694
     2.734291991  0.000000000  2.734291991     0.182862694 -0.182862694  0.182862694
     2.734291991  2.734291991  0.000000000     0.182862694  0.182862694 -0.182862694

  length of vectors
     3.866872817  3.866872817  3.866872817     0.316727477  0.316727477  0.316727477

  position of ions in fractional coordinates (direct lattice)
     0.000000000  0.000000000  0.000000000
     0.250000000  0.250000000  0.250000000

  ion indices of the primitive-cell ions
   primitive index   ion index
                 1           1
                 2           2

----------------------------------------------------------------------------------------

 
 
 KPOINTS: KPOINTS                                 

Automatic generation of k-mesh.
 Grid dimensions read from file:
 generate k-points for:   30   30   30

 Generating k-lattice:

  Cartesian coordinates                     Fractional coordinates (reciprocal lattice)
    -0.006095423  0.006095423  0.006095423     0.033333333  0.000000000  0.000000000
     0.006095423 -0.006095423  0.006095423     0.000000000  0.033333333  0.000000000
     0.006095423  0.006095423 -0.006095423     0.000000000  0.000000000  0.033333333

  Length of vectors
     0.010557583  0.010557583  0.010557583

  Shift w.r.t. Gamma in fractional coordinates (k-lattice)
     0.000000000  0.000000000  0.000000000

 
 Subroutine IBZKPT returns following result:
 ===========================================
 
 Found    752 irreducible k-points:
 
 Following reciprocal coordinates:
            Coordinates               Weight
  0.000000  0.000000  0.000000      1.000000
  0.033333  0.000000  0.000000      8.000000
  0.066667  0.000000  0.000000      8.000000
  0.100000  0.000000  0.000000      8.000000
  0.133333  0.000000  0.000000      8.000000
  0.166667  0.000000  0.000000      8.000000
  0.200000  0.000000  0.000000      8.000000
  0.233333  0.000000  0.000000      8.000000
  0.266667  0.000000  0.000000      8.000000
  0.300000  0.000000  0.000000      8.000000
  0.333333  0.000000  0.000000      8.000000
  0.366667  0.000000  0.000000      8.000000
  0.400000  0.000000  0.000000      8.000000
  0.433333  0.000000  0.000000      8.000000
  0.466667  0.000000  0.000000      8.000000
  0.500000  0.000000  0.000000      4.000000
  0.033333  0.033333  0.000000      6.000000
  0.066667  0.033333  0.000000     24.000000
  0.100000  0.033333  0.000000     24.000000
  0.133333  0.033333  0.000000     24.000000
  0.166667  0.033333  0.000000     24.000000
  0.200000  0.033333  0.000000     24.000000
  0.233333  0.033333  0.000000     24.000000
  0.266667  0.033333  0.000000     24.000000
  0.300000  0.033333  0.000000     24.000000
  0.333333  0.033333  0.000000     24.000000
  0.366667  0.033333  0.000000     24.000000
  0.400000  0.033333  0.000000     24.000000
  0.433333  0.033333  0.000000     24.000000
  0.466667  0.033333  0.000000     24.000000
  0.500000  0.033333  0.000000     24.000000
 -0.466667  0.033333  0.000000     24.000000
 -0.433333  0.033333  0.000000     24.000000
 -0.400000  0.033333  0.000000     24.000000
 -0.366667  0.033333  0.000000     24.000000
 -0.333333  0.033333  0.000000     24.000000
 -0.300000  0.033333  0.000000     24.000000
 -0.266667  0.033333  0.000000     24.000000
 -0.233333  0.033333  0.000000     24.000000
 -0.200000  0.033333  0.000000     24.000000
 -0.166667  0.033333  0.000000     24.000000
 -0.133333  0.033333  0.000000     24.000000
 -0.100000  0.033333  0.000000     24.000000
 -0.066667  0.033333  0.000000     24.000000
 -0.033333  0.033333  0.000000     12.000000
  0.066667  0.066667  0.000000      6.000000
  0.100000  0.066667  0.000000     24.000000
  0.133333  0.066667  0.000000     24.000000
  0.166667  0.066667  0.000000     24.000000
  0.200000  0.066667  0.000000     24.000000
  0.233333  0.066667  0.000000     24.000000
  0.266667  0.066667  0.000000     24.000000
  0.300000  0.066667  0.000000     24.000000
  0.333333  0.066667  0.000000     24.000000
  0.366667  0.066667  0.000000     24.000000
  0.400000  0.066667  0.000000     24.000000
  0.433333  0.066667  0.000000     24.000000
  0.466667  0.066667  0.000000     24.000000
  0.500000  0.066667  0.000000     24.000000
 -0.466667  0.066667  0.000000     24.000000
 -0.433333  0.066667  0.000000     24.000000
 -0.400000  0.066667  0.000000     24.000000
 -0.366667  0.066667  0.000000     24.000000
 -0.333333  0.066667  0.000000     24.000000
 -0.300000  0.066667  0.000000     24.000000
 -0.266667  0.066667  0.000000     24.000000
 -0.233333  0.066667  0.000000     24.000000
 -0.200000  0.066667  0.000000     24.000000
 -0.166667  0.066667  0.000000     24.000000
 -0.133333  0.066667  0.000000     24.000000
 -0.100000  0.066667  0.000000     24.000000
 -0.066667  0.066667  0.000000     12.000000
  0.100000  0.100000  0.000000      6.000000
  0.133333  0.100000  0.000000     24.000000
  0.166667  0.100000  0.000000     24.000000
  0.200000  0.100000  0.000000     24.000000
  0.233333  0.100000  0.000000     24.000000
  0.266667  0.100000  0.000000     24.000000
  0.300000  0.100000  0.000000     24.000000
  0.333333  0.100000  0.000000     24.000000
  0.366667  0.100000  0.000000     24.000000
  0.400000  0.100000  0.000000     24.000000
  0.433333  0.100000  0.000000     24.000000
  0.466667  0.100000  0.000000     24.000000
  0.500000  0.100000  0.000000     24.000000
 -0.466667  0.100000  0.000000     24.000000
 -0.433333  0.100000  0.000000     24.000000
 -0.400000  0.100000  0.000000     24.000000
 -0.366667  0.100000  0.000000     24.000000
 -0.333333  0.100000  0.000000     24.000000
 -0.300000  0.100000  0.000000     24.000000
 -0.266667  0.100000  0.000000     24.000000
 -0.233333  0.100000  0.000000     24.000000
 -0.200000  0.100000  0.000000     24.000000
 -0.166667  0.100000  0.000000     24.000000
 -0.133333  0.100000  0.000000     24.000000
 -0.100000  0.100000  0.000000     12.000000
  0.133333  0.133333  0.000000      6.000000
  0.166667  0.133333  0.000000     24.000000
  0.200000  0.133333  0.000000     24.000000
  0.233333  0.133333  0.000000     24.000000
  0.266667  0.133333  0.000000     24.000000
  0.300000  0.133333  0.000000     24.000000
  0.333333  0.133333  0.000000     24.000000
  0.366667  0.133333  0.000000     24.000000
  0.400000  0.133333  0.000000     24.000000
  0.433333  0.133333  0.000000     24.000000
  0.466667  0.133333  0.000000     24.000000
  0.500000  0.133333  0.000000     24.000000
 -0.466667  0.133333  0.000000     24.000000
 -0.433333  0.133333  0.000000     24.000000
 -0.400000  0.133333  0.000000     24.000000
 -0.366667  0.133333  0.000000     24.000000
 -0.333333  0.133333  0.000000     24.000000
 -0.300000  0.133333  0.000000     24.000000
 -0.266667  0.133333  0.000000     24.000000
 -0.233333  0.133333  0.000000     24.000000
 -0.200000  0.133333  0.000000     24.000000
 -0.166667  0.133333  0.000000     24.000000
 -0.133333  0.133333  0.000000     12.000000
  0.166667  0.166667  0.000000      6.000000
  0.200000  0.166667  0.000000     24.000000
  0.233333  0.166667  0.000000     24.000000
  0.266667  0.166667  0.000000     24.000000
  0.300000  0.166667  0.000000     24.000000
  0.333333  0.166667  0.000000     24.000000
  0.366667  0.166667  0.000000     24.000000
  0.400000  0.166667  0.000000     24.000000
  0.433333  0.166667  0.000000     24.000000
  0.466667  0.166667  0.000000     24.000000
  0.500000  0.166667  0.000000     24.000000
 -0.466667  0.166667  0.000000     24.000000
 -0.433333  0.166667  0.000000     24.000000
 -0.400000  0.166667  0.000000     24.000000
 -0.366667  0.166667  0.000000     24.000000
 -0.333333  0.166667  0.000000     24.000000
 -0.300000  0.166667  0.000000     24.000000
 -0.266667  0.166667  0.000000     24.000000
 -0.233333  0.166667  0.000000     24.000000
 -0.200000  0.166667  0.000000     24.000000
 -0.166667  0.166667  0.000000     12.000000
  0.200000  0.200000  0.000000      6.000000
  0.233333  0.200000  0.000000     24.000000
  0.266667  0.200000  0.000000     24.000000
  0.300000  0.200000  0.000000     24.000000
  0.333333  0.200000  0.000000     24.000000
  0.366667  0.200000  0.000000     24.000000
  0.400000  0.200000  0.000000     24.000000
  0.433333  0.200000  0.000000     24.000000
  0.466667  0.200000  0.000000     24.000000
  0.500000  0.200000  0.000000     24.000000
 -0.466667  0.200000  0.000000     24.000000
 -0.433333  0.200000  0.000000     24.000000
 -0.400000  0.200000  0.000000     24.000000
 -0.366667  0.200000  0.000000     24.000000
 -0.333333  0.200000  0.000000     24.000000
 -0.300000  0.200000  0.000000     24.000000
 -0.266667  0.200000  0.000000     24.000000
 -0.233333  0.200000  0.000000     24.000000
 -0.200000  0.200000  0.000000     12.000000
  0.233333  0.233333  0.000000      6.000000
  0.266667  0.233333  0.000000     24.000000
  0.300000  0.233333  0.000000     24.000000
  0.333333  0.233333  0.000000     24.000000
  0.366667  0.233333  0.000000     24.000000
  0.400000  0.233333  0.000000     24.000000
  0.433333  0.233333  0.000000     24.000000
  0.466667  0.233333  0.000000     24.000000
  0.500000  0.233333  0.000000     24.000000
 -0.466667  0.233333  0.000000     24.000000
 -0.433333  0.233333  0.000000     24.000000
 -0.400000  0.233333  0.000000     24.000000
 -0.366667  0.233333  0.000000     24.000000
 -0.333333  0.233333  0.000000     24.000000
 -0.300000  0.233333  0.000000     24.000000
 -0.266667  0.233333  0.000000     24.000000
 -0.233333  0.233333  0.000000     12.000000
  0.266667  0.266667  0.000000      6.000000
  0.300000  0.266667  0.000000     24.000000
  0.333333  0.266667  0.000000     24.000000
  0.366667  0.266667  0.000000     24.000000
  0.400000  0.266667  0.000000     24.000000
  0.433333  0.266667  0.000000     24.000000
  0.466667  0.266667  0.000000     24.000000
  0.500000  0.266667  0.000000     24.000000
 -0.466667  0.266667  0.000000     24.000000
 -0.433333  0.266667  0.000000     24.000000
 -0.400000  0.266667  0.000000     24.000000
 -0.366667  0.266667  0.000000     24.000000
 -0.333333  0.266667  0.000000     24.000000
 -0.300000  0.266667  0.000000     24.000000
 -0.266667  0.266667  0.000000     12.000000
  0.300000  0.300000  0.000000      6.000000
  0.333333  0.300000  0.000000     24.000000
  0.366667  0.300000  0.000000     24.000000
  0.400000  0.300000  0.000000     24.000000
  0.433333  0.300000  0.000000     24.000000
  0.466667  0.300000  0.000000     24.000000
  0.500000  0.300000  0.000000     24.000000
 -0.466667  0.300000  0.000000     24.000000
 -0.433333  0.300000  0.000000     24.000000
 -0.400000  0.300000  0.000000     24.000000
 -0.366667  0.300000  0.000000     24.000000
 -0.333333  0.300000  0.000000     24.000000
 -0.300000  0.300000  0.000000     12.000000
  0.333333  0.333333  0.000000      6.000000
  0.366667  0.333333  0.000000     24.000000
  0.400000  0.333333  0.000000     24.000000
  0.433333  0.333333  0.000000     24.000000
  0.466667  0.333333  0.000000     24.000000
  0.500000  0.333333  0.000000     24.000000
 -0.466667  0.333333  0.000000     24.000000
 -0.433333  0.333333  0.000000     24.000000
 -0.400000  0.333333  0.000000     24.000000
 -0.366667  0.333333  0.000000     24.000000
 -0.333333  0.333333  0.000000     12.000000
  0.366667  0.366667  0.000000      6.000000
  0.400000  0.366667  0.000000     24.000000
  0.433333  0.366667  0.000000     24.000000
  0.466667  0.366667  0.000000     24.000000
  0.500000  0.366667  0.000000     24.000000
 -0.466667  0.366667  0.000000     24.000000
 -0.433333  0.366667  0.000000     24.000000
 -0.400000  0.366667  0.000000     24.000000
 -0.366667  0.366667  0.000000     12.000000
  0.400000  0.400000  0.000000      6.000000
  0.433333  0.400000  0.000000     24.000000
  0.466667  0.400000  0.000000     24.000000
  0.500000  0.400000  0.000000     24.000000
 -0.466667  0.400000  0.000000     24.000000
 -0.433333  0.400000  0.000000     24.000000
 -0.400000  0.400000  0.000000     12.000000
  0.433333  0.433333  0.000000      6.000000
  0.466667  0.433333  0.000000     24.000000
  0.500000  0.433333  0.000000     24.000000
 -0.466667  0.433333  0.000000     24.000000
 -0.433333  0.433333  0.000000     12.000000
  0.466667  0.466667  0.000000      6.000000
  0.500000  0.466667  0.000000     24.000000
 -0.466667  0.466667  0.000000     12.000000
  0.500000  0.500000  0.000000      3.000000
  0.100000  0.066667  0.033333     24.000000
  0.133333  0.066667  0.033333     48.000000
  0.166667  0.066667  0.033333     48.000000
  0.200000  0.066667  0.033333     48.000000
  0.233333  0.066667  0.033333     48.000000
  0.266667  0.066667  0.033333     48.000000
  0.300000  0.066667  0.033333     48.000000
  0.333333  0.066667  0.033333     48.000000
  0.366667  0.066667  0.033333     48.000000
  0.400000  0.066667  0.033333     48.000000
  0.433333  0.066667  0.033333     48.000000
  0.466667  0.066667  0.033333     48.000000
  0.500000  0.066667  0.033333     48.000000
 -0.466667  0.066667  0.033333     24.000000
  0.133333  0.100000  0.033333     24.000000
  0.166667  0.100000  0.033333     48.000000
  0.200000  0.100000  0.033333     48.000000
  0.233333  0.100000  0.033333     48.000000
  0.266667  0.100000  0.033333     48.000000
  0.300000  0.100000  0.033333     48.000000
  0.333333  0.100000  0.033333     48.000000
  0.366667  0.100000  0.033333     48.000000
  0.400000  0.100000  0.033333     48.000000
  0.433333  0.100000  0.033333     48.000000
  0.466667  0.100000  0.033333     48.000000
  0.500000  0.100000  0.033333     48.000000
 -0.466667  0.100000  0.033333     48.000000
 -0.433333  0.100000  0.033333     48.000000
 -0.400000  0.100000  0.033333     48.000000
 -0.366667  0.100000  0.033333     48.000000
 -0.333333  0.100000  0.033333     48.000000
 -0.300000  0.100000  0.033333     48.000000
 -0.266667  0.100000  0.033333     48.000000
 -0.233333  0.100000  0.033333     48.000000
 -0.200000  0.100000  0.033333     48.000000
 -0.166667  0.100000  0.033333     48.000000
 -0.133333  0.100000  0.033333     48.000000
 -0.100000  0.100000  0.033333     48.000000
 -0.066667  0.100000  0.033333     24.000000
  0.166667  0.133333  0.033333     24.000000
  0.200000  0.133333  0.033333     48.000000
  0.233333  0.133333  0.033333     48.000000
  0.266667  0.133333  0.033333     48.000000
  0.300000  0.133333  0.033333     48.000000
  0.333333  0.133333  0.033333     48.000000
  0.366667  0.133333  0.033333     48.000000
  0.400000  0.133333  0.033333     48.000000
  0.433333  0.133333  0.033333     48.000000
  0.466667  0.133333  0.033333     48.000000
  0.500000  0.133333  0.033333     48.000000
 -0.466667  0.133333  0.033333     48.000000
 -0.433333  0.133333  0.033333     48.000000
 -0.400000  0.133333  0.033333     48.000000
 -0.366667  0.133333  0.033333     48.000000
 -0.333333  0.133333  0.033333     48.000000
 -0.300000  0.133333  0.033333     48.000000
 -0.266667  0.133333  0.033333     48.000000
 -0.233333  0.133333  0.033333     48.000000
 -0.200000  0.133333  0.033333     48.000000
 -0.166667  0.133333  0.033333     48.000000
 -0.133333  0.133333  0.033333     48.000000
 -0.100000  0.133333  0.033333     24.000000
  0.200000  0.166667  0.033333     24.000000
  0.233333  0.166667  0.033333     48.000000
  0.266667  0.166667  0.033333     48.000000
  0.300000  0.166667  0.033333     48.000000
  0.333333  0.166667  0.033333     48.000000
  0.366667  0.166667  0.033333     48.000000
  0.400000  0.166667  0.033333     48.000000
  0.433333  0.166667  0.033333     48.000000
  0.466667  0.166667  0.033333     48.000000
  0.500000  0.166667  0.033333     48.000000
 -0.466667  0.166667  0.033333     48.000000
 -0.433333  0.166667  0.033333     48.000000
 -0.400000  0.166667  0.033333     48.000000
 -0.366667  0.166667  0.033333     48.000000
 -0.333333  0.166667  0.033333     48.000000
 -0.300000  0.166667  0.033333     48.000000
 -0.266667  0.166667  0.033333     48.000000
 -0.233333  0.166667  0.033333     48.000000
 -0.200000  0.166667  0.033333     48.000000
 -0.166667  0.166667  0.033333     48.000000
 -0.133333  0.166667  0.033333     24.000000
  0.233333  0.200000  0.033333     24.000000
  0.266667  0.200000  0.033333     48.000000
  0.300000  0.200000  0.033333     48.000000
  0.333333  0.200000  0.033333     48.000000
  0.366667  0.200000  0.033333     48.000000
  0.400000  0.200000  0.033333     48.000000
  0.433333  0.200000  0.033333     48.000000
  0.466667  0.200000  0.033333     48.000000
  0.500000  0.200000  0.033333     48.000000
 -0.466667  0.200000  0.033333     48.000000
 -0.433333  0.200000  0.033333     48.000000
 -0.400000  0.200000  0.033333     48.000000
 -0.366667  0.200000  0.033333     48.000000
 -0.333333  0.200000  0.033333     48.000000
 -0.300000  0.200000  0.033333     48.000000
 -0.266667  0.200000  0.033333     48.000000
 -0.233333  0.200000  0.033333     48.000000
 -0.200000  0.200000  0.033333     48.000000
 -0.166667  0.200000  0.033333     24.000000
  0.266667  0.233333  0.033333     24.000000
  0.300000  0.233333  0.033333     48.000000
  0.333333  0.233333  0.033333     48.000000
  0.366667  0.233333  0.033333     48.000000
  0.400000  0.233333  0.033333     48.000000
  0.433333  0.233333  0.033333     48.000000
  0.466667  0.233333  0.033333     48.000000
  0.500000  0.233333  0.033333     48.000000
 -0.466667  0.233333  0.033333     48.000000
 -0.433333  0.233333  0.033333     48.000000
 -0.400000  0.233333  0.033333     48.000000
 -0.366667  0.233333  0.033333     48.000000
 -0.333333  0.233333  0.033333     48.000000
 -0.300000  0.233333  0.033333     48.000000
 -0.266667  0.233333  0.033333     48.000000
 -0.233333  0.233333  0.033333     48.000000
 -0.200000  0.233333  0.033333     24.000000
  0.300000  0.266667  0.033333     24.000000
  0.333333  0.266667  0.033333     48.000000
  0.366667  0.266667  0.033333     48.000000
  0.400000  0.266667  0.033333     48.000000
  0.433333  0.266667  0.033333     48.000000
  0.466667  0.266667  0.033333     48.000000
  0.500000  0.266667  0.033333     48.000000
 -0.466667  0.266667  0.033333     48.000000
 -0.433333  0.266667  0.033333     48.000000
 -0.400000  0.266667  0.033333     48.000000
 -0.366667  0.266667  0.033333     48.000000
 -0.333333  0.266667  0.033333     48.000000
 -0.300000  0.266667  0.033333     48.000000
 -0.266667  0.266667  0.033333     48.000000
 -0.233333  0.266667  0.033333     24.000000
  0.333333  0.300000  0.033333     24.000000
  0.366667  0.300000  0.033333     48.000000
  0.400000  0.300000  0.033333     48.000000
  0.433333  0.300000  0.033333     48.000000
  0.466667  0.300000  0.033333     48.000000
  0.500000  0.300000  0.033333     48.000000
 -0.466667  0.300000  0.033333     48.000000
 -0.433333  0.300000  0.033333     48.000000
 -0.400000  0.300000  0.033333     48.000000
 -0.366667  0.300000  0.033333     48.000000
 -0.333333  0.300000  0.033333     48.000000
 -0.300000  0.300000  0.033333     48.000000
 -0.266667  0.300000  0.033333     24.000000
  0.366667  0.333333  0.033333     24.000000
  0.400000  0.333333  0.033333     48.000000
  0.433333  0.333333  0.033333     48.000000
  0.466667  0.333333  0.033333     48.000000
  0.500000  0.333333  0.033333     48.000000
 -0.466667  0.333333  0.033333     48.000000
 -0.433333  0.333333  0.033333     48.000000
 -0.400000  0.333333  0.033333     48.000000
 -0.366667  0.333333  0.033333     48.000000
 -0.333333  0.333333  0.033333     48.000000
 -0.300000  0.333333  0.033333     24.000000
  0.400000  0.366667  0.033333     24.000000
  0.433333  0.366667  0.033333     48.000000
  0.466667  0.366667  0.033333     48.000000
  0.500000  0.366667  0.033333     48.000000
 -0.466667  0.366667  0.033333     48.000000
 -0.433333  0.366667  0.033333     48.000000
 -0.400000  0.366667  0.033333     48.000000
 -0.366667  0.366667  0.033333     48.000000
 -0.333333  0.366667  0.033333     24.000000
  0.433333  0.400000  0.033333     24.000000
  0.466667  0.400000  0.033333     48.000000
  0.500000  0.400000  0.033333     48.000000
 -0.466667  0.400000  0.033333     48.000000
 -0.433333  0.400000  0.033333     48.000000
 -0.400000  0.400000  0.033333     48.000000
 -0.366667  0.400000  0.033333     24.000000
  0.466667  0.433333  0.033333     24.000000
  0.500000  0.433333  0.033333     48.000000
 -0.466667  0.433333  0.033333     48.000000
 -0.433333  0.433333  0.033333     48.000000
 -0.400000  0.433333  0.033333     24.000000
  0.500000  0.466667  0.033333     24.000000
 -0.466667  0.466667  0.033333     48.000000
 -0.433333  0.466667  0.033333     24.000000
 -0.466667  0.500000  0.033333     12.000000
  0.200000  0.133333  0.066667     24.000000
  0.233333  0.133333  0.066667     48.000000
  0.266667  0.133333  0.066667     48.000000
  0.300000  0.133333  0.066667     48.000000
  0.333333  0.133333  0.066667     48.000000
  0.366667  0.133333  0.066667     48.000000
  0.400000  0.133333  0.066667     48.000000
  0.433333  0.133333  0.066667     48.000000
  0.466667  0.133333  0.066667     48.000000
  0.500000  0.133333  0.066667     48.000000
 -0.466667  0.133333  0.066667     48.000000
 -0.433333  0.133333  0.066667     24.000000
  0.233333  0.166667  0.066667     24.000000
  0.266667  0.166667  0.066667     48.000000
  0.300000  0.166667  0.066667     48.000000
  0.333333  0.166667  0.066667     48.000000
  0.366667  0.166667  0.066667     48.000000
  0.400000  0.166667  0.066667     48.000000
  0.433333  0.166667  0.066667     48.000000
  0.466667  0.166667  0.066667     48.000000
  0.500000  0.166667  0.066667     48.000000
 -0.466667  0.166667  0.066667     48.000000
 -0.433333  0.166667  0.066667     48.000000
 -0.400000  0.166667  0.066667     48.000000
 -0.366667  0.166667  0.066667     48.000000
 -0.333333  0.166667  0.066667     48.000000
 -0.300000  0.166667  0.066667     48.000000
 -0.266667  0.166667  0.066667     48.000000
 -0.233333  0.166667  0.066667     48.000000
 -0.200000  0.166667  0.066667     48.000000
 -0.166667  0.166667  0.066667     48.000000
 -0.133333  0.166667  0.066667     48.000000
 -0.100000  0.166667  0.066667     24.000000
  0.266667  0.200000  0.066667     24.000000
  0.300000  0.200000  0.066667     48.000000
  0.333333  0.200000  0.066667     48.000000
  0.366667  0.200000  0.066667     48.000000
  0.400000  0.200000  0.066667     48.000000
  0.433333  0.200000  0.066667     48.000000
  0.466667  0.200000  0.066667     48.000000
  0.500000  0.200000  0.066667     48.000000
 -0.466667  0.200000  0.066667     48.000000
 -0.433333  0.200000  0.066667     48.000000
 -0.400000  0.200000  0.066667     48.000000
 -0.366667  0.200000  0.066667     48.000000
 -0.333333  0.200000  0.066667     48.000000
 -0.300000  0.200000  0.066667     48.000000
 -0.266667  0.200000  0.066667     48.000000
 -0.233333  0.200000  0.066667     48.000000
 -0.200000  0.200000  0.066667     48.000000
 -0.166667  0.200000  0.066667     48.000000
 -0.133333  0.200000  0.066667     24.000000
  0.300000  0.233333  0.066667     24.000000
  0.333333  0.233333  0.066667     48.000000
  0.366667  0.233333  0.066667     48.000000
  0.400000  0.233333  0.066667     48.000000
  0.433333  0.233333  0.066667     48.000000
  0.466667  0.233333  0.066667     48.000000
  0.500000  0.233333  0.066667     48.000000
 -0.466667  0.233333  0.066667     48.000000
 -0.433333  0.233333  0.066667     48.000000
 -0.400000  0.233333  0.066667     48.000000
 -0.366667  0.233333  0.066667     48.000000
 -0.333333  0.233333  0.066667     48.000000
 -0.300000  0.233333  0.066667     48.000000
 -0.266667  0.233333  0.066667     48.000000
 -0.233333  0.233333  0.066667     48.000000
 -0.200000  0.233333  0.066667     48.000000
 -0.166667  0.233333  0.066667     24.000000
  0.333333  0.266667  0.066667     24.000000
  0.366667  0.266667  0.066667     48.000000
  0.400000  0.266667  0.066667     48.000000
  0.433333  0.266667  0.066667     48.000000
  0.466667  0.266667  0.066667     48.000000
  0.500000  0.266667  0.066667     48.000000
 -0.466667  0.266667  0.066667     48.000000
 -0.433333  0.266667  0.066667     48.000000
 -0.400000  0.266667  0.066667     48.000000
 -0.366667  0.266667  0.066667     48.000000
 -0.333333  0.266667  0.066667     48.000000
 -0.300000  0.266667  0.066667     48.000000
 -0.266667  0.266667  0.066667     48.000000
 -0.233333  0.266667  0.066667     48.000000
 -0.200000  0.266667  0.066667     24.000000
  0.366667  0.300000  0.066667     24.000000
  0.400000  0.300000  0.066667     48.000000
  0.433333  0.300000  0.066667     48.000000
  0.466667  0.300000  0.066667     48.000000
  0.500000  0.300000  0.066667     48.000000
 -0.466667  0.300000  0.066667     48.000000
 -0.433333  0.300000  0.066667     48.000000
 -0.400000  0.300000  0.066667     48.000000
 -0.366667  0.300000  0.066667     48.000000
 -0.333333  0.300000  0.066667     48.000000
 -0.300000  0.300000  0.066667     48.000000
 -0.266667  0.300000  0.066667     48.000000
 -0.233333  0.300000  0.066667     24.000000
  0.400000  0.333333  0.066667     24.000000
  0.433333  0.333333  0.066667     48.000000
  0.466667  0.333333  0.066667     48.000000
  0.500000  0.333333  0.066667     48.000000
 -0.466667  0.333333  0.066667     48.000000
 -0.433333  0.333333  0.066667     48.000000
 -0.400000  0.333333  0.066667     48.000000
 -0.366667  0.333333  0.066667     48.000000
 -0.333333  0.333333  0.066667     48.000000
 -0.300000  0.333333  0.066667     48.000000
 -0.266667  0.333333  0.066667     24.000000
  0.433333  0.366667  0.066667     24.000000
  0.466667  0.366667  0.066667     48.000000
  0.500000  0.366667  0.066667     48.000000
 -0.466667  0.366667  0.066667     48.000000
 -0.433333  0.366667  0.066667     48.000000
 -0.400000  0.366667  0.066667     48.000000
 -0.366667  0.366667  0.066667     48.000000
 -0.333333  0.366667  0.066667     48.000000
 -0.300000  0.366667  0.066667     24.000000
  0.466667  0.400000  0.066667     24.000000
  0.500000  0.400000  0.066667     48.000000
 -0.466667  0.400000  0.066667     48.000000
 -0.433333  0.400000  0.066667     48.000000
 -0.400000  0.400000  0.066667     48.000000
 -0.366667  0.400000  0.066667     48.000000
 -0.333333  0.400000  0.066667     24.000000
  0.500000  0.433333  0.066667     24.000000
 -0.466667  0.433333  0.066667     48.000000
 -0.433333  0.433333  0.066667     48.000000
 -0.400000  0.433333  0.066667     48.000000
 -0.366667  0.433333  0.066667     24.000000
 -0.466667  0.466667  0.066667     24.000000
 -0.433333  0.466667  0.066667     48.000000
 -0.400000  0.466667  0.066667     24.000000
 -0.433333  0.500000  0.066667     12.000000
  0.300000  0.200000  0.100000     24.000000
  0.333333  0.200000  0.100000     48.000000
  0.366667  0.200000  0.100000     48.000000
  0.400000  0.200000  0.100000     48.000000
  0.433333  0.200000  0.100000     48.000000
  0.466667  0.200000  0.100000     48.000000
  0.500000  0.200000  0.100000     48.000000
 -0.466667  0.200000  0.100000     48.000000
 -0.433333  0.200000  0.100000     48.000000
 -0.400000  0.200000  0.100000     24.000000
  0.333333  0.233333  0.100000     24.000000
  0.366667  0.233333  0.100000     48.000000
  0.400000  0.233333  0.100000     48.000000
  0.433333  0.233333  0.100000     48.000000
  0.466667  0.233333  0.100000     48.000000
  0.500000  0.233333  0.100000     48.000000
 -0.466667  0.233333  0.100000     48.000000
 -0.433333  0.233333  0.100000     48.000000
 -0.400000  0.233333  0.100000     48.000000
 -0.366667  0.233333  0.100000     48.000000
 -0.333333  0.233333  0.100000     48.000000
 -0.300000  0.233333  0.100000     48.000000
 -0.266667  0.233333  0.100000     48.000000
 -0.233333  0.233333  0.100000     48.000000
 -0.200000  0.233333  0.100000     48.000000
 -0.166667  0.233333  0.100000     48.000000
 -0.133333  0.233333  0.100000     24.000000
  0.366667  0.266667  0.100000     24.000000
  0.400000  0.266667  0.100000     48.000000
  0.433333  0.266667  0.100000     48.000000
  0.466667  0.266667  0.100000     48.000000
  0.500000  0.266667  0.100000     48.000000
 -0.466667  0.266667  0.100000     48.000000
 -0.433333  0.266667  0.100000     48.000000
 -0.400000  0.266667  0.100000     48.000000
 -0.366667  0.266667  0.100000     48.000000
 -0.333333  0.266667  0.100000     48.000000
 -0.300000  0.266667  0.100000     48.000000
 -0.266667  0.266667  0.100000     48.000000
 -0.233333  0.266667  0.100000     48.000000
 -0.200000  0.266667  0.100000     48.000000
 -0.166667  0.266667  0.100000     24.000000
  0.400000  0.300000  0.100000     24.000000
  0.433333  0.300000  0.100000     48.000000
  0.466667  0.300000  0.100000     48.000000
  0.500000  0.300000  0.100000     48.000000
 -0.466667  0.300000  0.100000     48.000000
 -0.433333  0.300000  0.100000     48.000000
 -0.400000  0.300000  0.100000     48.000000
 -0.366667  0.300000  0.100000     48.000000
 -0.333333  0.300000  0.100000     48.000000
 -0.300000  0.300000  0.100000     48.000000
 -0.266667  0.300000  0.100000     48.000000
 -0.233333  0.300000  0.100000     48.000000
 -0.200000  0.300000  0.100000     24.000000
  0.433333  0.333333  0.100000     24.000000
  0.466667  0.333333  0.100000     48.000000
  0.500000  0.333333  0.100000     48.000000
 -0.466667  0.333333  0.100000     48.000000
 -0.433333  0.333333  0.100000     48.000000
 -0.400000  0.333333  0.100000     48.000000
 -0.366667  0.333333  0.100000     48.000000
 -0.333333  0.333333  0.100000     48.000000
 -0.300000  0.333333  0.100000     48.000000
 -0.266667  0.333333  0.100000     48.000000
 -0.233333  0.333333  0.100000     24.000000
  0.466667  0.366667  0.100000     24.000000
  0.500000  0.366667  0.100000     48.000000
 -0.466667  0.366667  0.100000     48.000000
 -0.433333  0.366667  0.100000     48.000000
 -0.400000  0.366667  0.100000     48.000000
 -0.366667  0.366667  0.100000     48.000000
 -0.333333  0.366667  0.100000     48.000000
 -0.300000  0.366667  0.100000     48.000000
 -0.266667  0.366667  0.100000     24.000000
  0.500000  0.400000  0.100000     24.000000
 -0.466667  0.400000  0.100000     48.000000
 -0.433333  0.400000  0.100000     48.000000
 -0.400000  0.400000  0.100000     48.000000
 -0.366667  0.400000  0.100000     48.000000
 -0.333333  0.400000  0.100000     48.000000
 -0.300000  0.400000  0.100000     24.000000
 -0.466667  0.433333  0.100000     24.000000
 -0.433333  0.433333  0.100000     48.000000
 -0.400000  0.433333  0.100000     48.000000
 -0.366667  0.433333  0.100000     48.000000
 -0.333333  0.433333  0.100000     24.000000
 -0.433333  0.466667  0.100000     24.000000
 -0.400000  0.466667  0.100000     48.000000
 -0.366667  0.466667  0.100000     24.000000
 -0.400000  0.500000  0.100000     12.000000
  0.400000  0.266667  0.133333     24.000000
  0.433333  0.266667  0.133333     48.000000
  0.466667  0.266667  0.133333     48.000000
  0.500000  0.266667  0.133333     48.000000
 -0.466667  0.266667  0.133333     48.000000
 -0.433333  0.266667  0.133333     48.000000
 -0.400000  0.266667  0.133333     48.000000
 -0.366667  0.266667  0.133333     24.000000
  0.433333  0.300000  0.133333     24.000000
  0.466667  0.300000  0.133333     48.000000
  0.500000  0.300000  0.133333     48.000000
 -0.466667  0.300000  0.133333     48.000000
 -0.433333  0.300000  0.133333     48.000000
 -0.400000  0.300000  0.133333     48.000000
 -0.366667  0.300000  0.133333     48.000000
 -0.333333  0.300000  0.133333     48.000000
 -0.300000  0.300000  0.133333     48.000000
 -0.266667  0.300000  0.133333     48.000000
 -0.233333  0.300000  0.133333     48.000000
 -0.200000  0.300000  0.133333     48.000000
 -0.166667  0.300000  0.133333     24.000000
  0.466667  0.333333  0.133333     24.000000
  0.500000  0.333333  0.133333     48.000000
 -0.466667  0.333333  0.133333     48.000000
 -0.433333  0.333333  0.133333     48.000000
 -0.400000  0.333333  0.133333     48.000000
 -0.366667  0.333333  0.133333     48.000000
 -0.333333  0.333333  0.133333     48.000000
 -0.300000  0.333333  0.133333     48.000000
 -0.266667  0.333333  0.133333     48.000000
 -0.233333  0.333333  0.133333     48.000000
 -0.200000  0.333333  0.133333     24.000000
  0.500000  0.366667  0.133333     24.000000
 -0.466667  0.366667  0.133333     48.000000
 -0.433333  0.366667  0.133333     48.000000
 -0.400000  0.366667  0.133333     48.000000
 -0.366667  0.366667  0.133333     48.000000
 -0.333333  0.366667  0.133333     48.000000
 -0.300000  0.366667  0.133333     48.000000
 -0.266667  0.366667  0.133333     48.000000
 -0.233333  0.366667  0.133333     24.000000
 -0.466667  0.400000  0.133333     24.000000
 -0.433333  0.400000  0.133333     48.000000
 -0.400000  0.400000  0.133333     48.000000
 -0.366667  0.400000  0.133333     48.000000
 -0.333333  0.400000  0.133333     48.000000
 -0.300000  0.400000  0.133333     48.000000
 -0.266667  0.400000  0.133333     24.000000
 -0.433333  0.433333  0.133333     24.000000
 -0.400000  0.433333  0.133333     48.000000
 -0.366667  0.433333  0.133333     48.000000
 -0.333333  0.433333  0.133333     48.000000
 -0.300000  0.433333  0.133333     24.000000
 -0.400000  0.466667  0.133333     24.000000
 -0.366667  0.466667  0.133333     48.000000
 -0.333333  0.466667  0.133333     24.000000
 -0.366667  0.500000  0.133333     12.000000
  0.500000  0.333333  0.166667     24.000000
 -0.466667  0.333333  0.166667     48.000000
 -0.433333  0.333333  0.166667     48.000000
 -0.400000  0.333333  0.166667     48.000000
 -0.366667  0.333333  0.166667     48.000000
 -0.333333  0.333333  0.166667     24.000000
 -0.466667  0.366667  0.166667     24.000000
 -0.433333  0.366667  0.166667     48.000000
 -0.400000  0.366667  0.166667     48.000000
 -0.366667  0.366667  0.166667     48.000000
 -0.333333  0.366667  0.166667     48.000000
 -0.300000  0.366667  0.166667     48.000000
 -0.266667  0.366667  0.166667     48.000000
 -0.233333  0.366667  0.166667     48.000000
 -0.200000  0.366667  0.166667     24.000000
 -0.433333  0.400000  0.166667     24.000000
 -0.400000  0.400000  0.166667     48.000000
 -0.366667  0.400000  0.166667     48.000000
 -0.333333  0.400000  0.166667     48.000000
 -0.300000  0.400000  0.166667     48.000000
 -0.266667  0.400000  0.166667     48.000000
 -0.233333  0.400000  0.166667     24.000000
 -0.400000  0.433333  0.166667     24.000000
 -0.366667  0.433333  0.166667     48.000000
 -0.333333  0.433333  0.166667     48.000000
 -0.300000  0.433333  0.166667     48.000000
 -0.266667  0.433333  0.166667     24.000000
 -0.366667  0.466667  0.166667     24.000000
 -0.333333  0.466667  0.166667     48.000000
 -0.300000  0.466667  0.166667     24.000000
 -0.333333  0.500000  0.166667     12.000000
 -0.400000  0.400000  0.200000     24.000000
 -0.366667  0.400000  0.200000     48.000000
 -0.333333  0.400000  0.200000     48.000000
 -0.300000  0.400000  0.200000     24.000000
 -0.366667  0.433333  0.200000     24.000000
 -0.333333  0.433333  0.200000     48.000000
 -0.300000  0.433333  0.200000     48.000000
 -0.266667  0.433333  0.200000     48.000000
 -0.233333  0.433333  0.200000     24.000000
 -0.333333  0.466667  0.200000     24.000000
 -0.300000  0.466667  0.200000     48.000000
 -0.266667  0.466667  0.200000     24.000000
 -0.300000  0.500000  0.200000     12.000000
 -0.300000  0.466667  0.233333     24.000000
 -0.266667  0.466667  0.233333     24.000000
 -0.266667  0.500000  0.233333     12.000000
 
 Following cartesian coordinates:
            Coordinates               Weight
  0.000000  0.000000  0.000000      1.000000
 -0.006095  0.006095  0.006095      8.000000
 -0.012191  0.012191  0.012191      8.000000
 -0.018286  0.018286  0.018286      8.000000
 -0.024382  0.024382  0.024382      8.000000
 -0.030477  0.030477  0.030477      8.000000
 -0.036573  0.036573  0.036573      8.000000
 -0.042668  0.042668  0.042668      8.000000
 -0.048763  0.048763  0.048763      8.000000
 -0.054859  0.054859  0.054859      8.000000
 -0.060954  0.060954  0.060954      8.000000
 -0.067050  0.067050  0.067050      8.000000
 -0.073145  0.073145  0.073145      8.000000
 -0.079241  0.079241  0.079241      8.000000
 -0.085336  0.085336  0.085336      8.000000
 -0.091431  0.091431  0.091431      4.000000
  0.000000  0.000000  0.012191      6.000000
 -0.006095  0.006095  0.018286     24.000000
 -0.012191  0.012191  0.024382     24.000000
 -0.018286  0.018286  0.030477     24.000000
 -0.024382  0.024382  0.036573     24.000000
 -0.030477  0.030477  0.042668     24.000000
 -0.036573  0.036573  0.048763     24.000000
 -0.042668  0.042668  0.054859     24.000000
 -0.048763  0.048763  0.060954     24.000000
 -0.054859  0.054859  0.067050     24.000000
 -0.060954  0.060954  0.073145     24.000000
 -0.067050  0.067050  0.079241     24.000000
 -0.073145  0.073145  0.085336     24.000000
 -0.079241  0.079241  0.091431     24.000000
 -0.085336  0.085336  0.097527     24.000000
  0.091431 -0.091431 -0.079241     24.000000
  0.085336 -0.085336 -0.073145     24.000000
  0.079241 -0.079241 -0.067050     24.000000
  0.073145 -0.073145 -0.060954     24.000000
  0.067050 -0.067050 -0.054859     24.000000
  0.060954 -0.060954 -0.048763     24.000000
  0.054859 -0.054859 -0.042668     24.000000
  0.048763 -0.048763 -0.036573     24.000000
  0.042668 -0.042668 -0.030477     24.000000
  0.036573 -0.036573 -0.024382     24.000000
  0.030477 -0.030477 -0.018286     24.000000
  0.024382 -0.024382 -0.012191     24.000000
  0.018286 -0.018286 -0.006095     24.000000
  0.012191 -0.012191  0.000000     12.000000
  0.000000  0.000000  0.024382      6.000000
 -0.006095  0.006095  0.030477     24.000000
 -0.012191  0.012191  0.036573     24.000000
 -0.018286  0.018286  0.042668     24.000000
 -0.024382  0.024382  0.048763     24.000000
 -0.030477  0.030477  0.054859     24.000000
 -0.036573  0.036573  0.060954     24.000000
 -0.042668  0.042668  0.067050     24.000000
 -0.048763  0.048763  0.073145     24.000000
 -0.054859  0.054859  0.079241     24.000000
 -0.060954  0.060954  0.085336     24.000000
 -0.067050  0.067050  0.091431     24.000000
 -0.073145  0.073145  0.097527     24.000000
 -0.079241  0.079241  0.103622     24.000000
  0.097527 -0.097527 -0.073145     24.000000
  0.091431 -0.091431 -0.067050     24.000000
  0.085336 -0.085336 -0.060954     24.000000
  0.079241 -0.079241 -0.054859     24.000000
  0.073145 -0.073145 -0.048763     24.000000
  0.067050 -0.067050 -0.042668     24.000000
  0.060954 -0.060954 -0.036573     24.000000
  0.054859 -0.054859 -0.030477     24.000000
  0.048763 -0.048763 -0.024382     24.000000
  0.042668 -0.042668 -0.018286     24.000000
  0.036573 -0.036573 -0.012191     24.000000
  0.030477 -0.030477 -0.006095     24.000000
  0.024382 -0.024382  0.000000     12.000000
  0.000000  0.000000  0.036573      6.000000
 -0.006095  0.006095  0.042668     24.000000
 -0.012191  0.012191  0.048763     24.000000
 -0.018286  0.018286  0.054859     24.000000
 -0.024382  0.024382  0.060954     24.000000
 -0.030477  0.030477  0.067050     24.000000
 -0.036573  0.036573  0.073145     24.000000
 -0.042668  0.042668  0.079241     24.000000
 -0.048763  0.048763  0.085336     24.000000
 -0.054859  0.054859  0.091431     24.000000
 -0.060954  0.060954  0.097527     24.000000
 -0.067050  0.067050  0.103622     24.000000
 -0.073145  0.073145  0.109718     24.000000
  0.103622 -0.103622 -0.067050     24.000000
  0.097527 -0.097527 -0.060954     24.000000
  0.091431 -0.091431 -0.054859     24.000000
  0.085336 -0.085336 -0.048763     24.000000
  0.079241 -0.079241 -0.042668     24.000000
  0.073145 -0.073145 -0.036573     24.000000
  0.067050 -0.067050 -0.030477     24.000000
  0.060954 -0.060954 -0.024382     24.000000
  0.054859 -0.054859 -0.018286     24.000000
  0.048763 -0.048763 -0.012191     24.000000
  0.042668 -0.042668 -0.006095     24.000000
  0.036573 -0.036573  0.000000     12.000000
  0.000000  0.000000  0.048763      6.000000
 -0.006095  0.006095  0.054859     24.000000
 -0.012191  0.012191  0.060954     24.000000
 -0.018286  0.018286  0.067050     24.000000
 -0.024382  0.024382  0.073145     24.000000
 -0.030477  0.030477  0.079241     24.000000
 -0.036573  0.036573  0.085336     24.000000
 -0.042668  0.042668  0.091431     24.000000
 -0.048763  0.048763  0.097527     24.000000
 -0.054859  0.054859  0.103622     24.000000
 -0.060954  0.060954  0.109718     24.000000
 -0.067050  0.067050  0.115813     24.000000
  0.109718 -0.109718 -0.060954     24.000000
  0.103622 -0.103622 -0.054859     24.000000
  0.097527 -0.097527 -0.048763     24.000000
  0.091431 -0.091431 -0.042668     24.000000
  0.085336 -0.085336 -0.036573     24.000000
  0.079241 -0.079241 -0.030477     24.000000
  0.073145 -0.073145 -0.024382     24.000000
  0.067050 -0.067050 -0.018286     24.000000
  0.060954 -0.060954 -0.012191     24.000000
  0.054859 -0.054859 -0.006095     24.000000
  0.048763 -0.048763  0.000000     12.000000
  0.000000  0.000000  0.060954      6.000000
 -0.006095  0.006095  0.067050     24.000000
 -0.012191  0.012191  0.073145     24.000000
 -0.018286  0.018286  0.079241     24.000000
 -0.024382  0.024382  0.085336     24.000000
 -0.030477  0.030477  0.091431     24.000000
 -0.036573  0.036573  0.097527     24.000000
 -0.042668  0.042668  0.103622     24.000000
 -0.048763  0.048763  0.109718     24.000000
 -0.054859  0.054859  0.115813     24.000000
 -0.060954  0.060954  0.121908     24.000000
  0.115813 -0.115813 -0.054859     24.000000
  0.109718 -0.109718 -0.048763     24.000000
  0.103622 -0.103622 -0.042668     24.000000
  0.097527 -0.097527 -0.036573     24.000000
  0.091431 -0.091431 -0.030477     24.000000
  0.085336 -0.085336 -0.024382     24.000000
  0.079241 -0.079241 -0.018286     24.000000
  0.073145 -0.073145 -0.012191     24.000000
  0.067050 -0.067050 -0.006095     24.000000
  0.060954 -0.060954  0.000000     12.000000
  0.000000  0.000000  0.073145      6.000000
 -0.006095  0.006095  0.079241     24.000000
 -0.012191  0.012191  0.085336     24.000000
 -0.018286  0.018286  0.091431     24.000000
 -0.024382  0.024382  0.097527     24.000000
 -0.030477  0.030477  0.103622     24.000000
 -0.036573  0.036573  0.109718     24.000000
 -0.042668  0.042668  0.115813     24.000000
 -0.048763  0.048763  0.121908     24.000000
 -0.054859  0.054859  0.128004     24.000000
  0.121908 -0.121908 -0.048763     24.000000
  0.115813 -0.115813 -0.042668     24.000000
  0.109718 -0.109718 -0.036573     24.000000
  0.103622 -0.103622 -0.030477     24.000000
  0.097527 -0.097527 -0.024382     24.000000
  0.091431 -0.091431 -0.018286     24.000000
  0.085336 -0.085336 -0.012191     24.000000
  0.079241 -0.079241 -0.006095     24.000000
  0.073145 -0.073145  0.000000     12.000000
  0.000000  0.000000  0.085336      6.000000
 -0.006095  0.006095  0.091431     24.000000
 -0.012191  0.012191  0.097527     24.000000
 -0.018286  0.018286  0.103622     24.000000
 -0.024382  0.024382  0.109718     24.000000
 -0.030477  0.030477  0.115813     24.000000
 -0.036573  0.036573  0.121908     24.000000
 -0.042668  0.042668  0.128004     24.000000
 -0.048763  0.048763  0.134099     24.000000
  0.128004 -0.128004 -0.042668     24.000000
  0.121908 -0.121908 -0.036573     24.000000
  0.115813 -0.115813 -0.030477     24.000000
  0.109718 -0.109718 -0.024382     24.000000
  0.103622 -0.103622 -0.018286     24.000000
  0.097527 -0.097527 -0.012191     24.000000
  0.091431 -0.091431 -0.006095     24.000000
  0.085336 -0.085336  0.000000     12.000000
  0.000000  0.000000  0.097527      6.000000
 -0.006095  0.006095  0.103622     24.000000
 -0.012191  0.012191  0.109718     24.000000
 -0.018286  0.018286  0.115813     24.000000
 -0.024382  0.024382  0.121908     24.000000
 -0.030477  0.030477  0.128004     24.000000
 -0.036573  0.036573  0.134099     24.000000
 -0.042668  0.042668  0.140195     24.000000
  0.134099 -0.134099 -0.036573     24.000000
  0.128004 -0.128004 -0.030477     24.000000
  0.121908 -0.121908 -0.024382     24.000000
  0.115813 -0.115813 -0.018286     24.000000
  0.109718 -0.109718 -0.012191     24.000000
  0.103622 -0.103622 -0.006095     24.000000
  0.097527 -0.097527  0.000000     12.000000
  0.000000  0.000000  0.109718      6.000000
 -0.006095  0.006095  0.115813     24.000000
 -0.012191  0.012191  0.121908     24.000000
 -0.018286  0.018286  0.128004     24.000000
 -0.024382  0.024382  0.134099     24.000000
 -0.030477  0.030477  0.140195     24.000000
 -0.036573  0.036573  0.146290     24.000000
  0.140195 -0.140195 -0.030477     24.000000
  0.134099 -0.134099 -0.024382     24.000000
  0.128004 -0.128004 -0.018286     24.000000
  0.121908 -0.121908 -0.012191     24.000000
  0.115813 -0.115813 -0.006095     24.000000
  0.109718 -0.109718  0.000000     12.000000
  0.000000  0.000000  0.121908      6.000000
 -0.006095  0.006095  0.128004     24.000000
 -0.012191  0.012191  0.134099     24.000000
 -0.018286  0.018286  0.140195     24.000000
 -0.024382  0.024382  0.146290     24.000000
 -0.030477  0.030477  0.152386     24.000000
  0.146290 -0.146290 -0.024382     24.000000
  0.140195 -0.140195 -0.018286     24.000000
  0.134099 -0.134099 -0.012191     24.000000
  0.128004 -0.128004 -0.006095     24.000000
  0.121908 -0.121908  0.000000     12.000000
  0.000000  0.000000  0.134099      6.000000
 -0.006095  0.006095  0.140195     24.000000
 -0.012191  0.012191  0.146290     24.000000
 -0.018286  0.018286  0.152386     24.000000
 -0.024382  0.024382  0.158481     24.000000
  0.152386 -0.152386 -0.018286     24.000000
  0.146290 -0.146290 -0.012191     24.000000
  0.140195 -0.140195 -0.006095     24.000000
  0.134099 -0.134099  0.000000     12.000000
  0.000000  0.000000  0.146290      6.000000
 -0.006095  0.006095  0.152386     24.000000
 -0.012191  0.012191  0.158481     24.000000
 -0.018286  0.018286  0.164576     24.000000
  0.158481 -0.158481 -0.012191     24.000000
  0.152386 -0.152386 -0.006095     24.000000
  0.146290 -0.146290  0.000000     12.000000
  0.000000  0.000000  0.158481      6.000000
 -0.006095  0.006095  0.164576     24.000000
 -0.012191  0.012191  0.170672     24.000000
  0.164576 -0.164576 -0.006095     24.000000
  0.158481 -0.158481  0.000000     12.000000
  0.000000  0.000000  0.170672      6.000000
 -0.006095  0.006095  0.176767     24.000000
  0.170672 -0.170672  0.000000     12.000000
  0.000000  0.000000  0.182863      3.000000
  0.000000  0.012191  0.024382     24.000000
 -0.006095  0.018286  0.030477     48.000000
 -0.012191  0.024382  0.036573     48.000000
 -0.018286  0.030477  0.042668     48.000000
 -0.024382  0.036573  0.048763     48.000000
 -0.030477  0.042668  0.054859     48.000000
 -0.036573  0.048763  0.060954     48.000000
 -0.042668  0.054859  0.067050     48.000000
 -0.048763  0.060954  0.073145     48.000000
 -0.054859  0.067050  0.079241     48.000000
 -0.060954  0.073145  0.085336     48.000000
 -0.067050  0.079241  0.091431     48.000000
 -0.073145  0.085336  0.097527     48.000000
  0.103622 -0.091431 -0.079241     24.000000
  0.000000  0.012191  0.036573     24.000000
 -0.006095  0.018286  0.042668     48.000000
 -0.012191  0.024382  0.048763     48.000000
 -0.018286  0.030477  0.054859     48.000000
 -0.024382  0.036573  0.060954     48.000000
 -0.030477  0.042668  0.067050     48.000000
 -0.036573  0.048763  0.073145     48.000000
 -0.042668  0.054859  0.079241     48.000000
 -0.048763  0.060954  0.085336     48.000000
 -0.054859  0.067050  0.091431     48.000000
 -0.060954  0.073145  0.097527     48.000000
 -0.067050  0.079241  0.103622     48.000000
  0.109718 -0.097527 -0.073145     48.000000
  0.103622 -0.091431 -0.067050     48.000000
  0.097527 -0.085336 -0.060954     48.000000
  0.091431 -0.079241 -0.054859     48.000000
  0.085336 -0.073145 -0.048763     48.000000
  0.079241 -0.067050 -0.042668     48.000000
  0.073145 -0.060954 -0.036573     48.000000
  0.067050 -0.054859 -0.030477     48.000000
  0.060954 -0.048763 -0.024382     48.000000
  0.054859 -0.042668 -0.018286     48.000000
  0.048763 -0.036573 -0.012191     48.000000
  0.042668 -0.030477 -0.006095     48.000000
  0.036573 -0.024382  0.000000     24.000000
  0.000000  0.012191  0.048763     24.000000
 -0.006095  0.018286  0.054859     48.000000
 -0.012191  0.024382  0.060954     48.000000
 -0.018286  0.030477  0.067050     48.000000
 -0.024382  0.036573  0.073145     48.000000
 -0.030477  0.042668  0.079241     48.000000
 -0.036573  0.048763  0.085336     48.000000
 -0.042668  0.054859  0.091431     48.000000
 -0.048763  0.060954  0.097527     48.000000
 -0.054859  0.067050  0.103622     48.000000
 -0.060954  0.073145  0.109718     48.000000
  0.115813 -0.103622 -0.067050     48.000000
  0.109718 -0.097527 -0.060954     48.000000
  0.103622 -0.091431 -0.054859     48.000000
  0.097527 -0.085336 -0.048763     48.000000
  0.091431 -0.079241 -0.042668     48.000000
  0.085336 -0.073145 -0.036573     48.000000
  0.079241 -0.067050 -0.030477     48.000000
  0.073145 -0.060954 -0.024382     48.000000
  0.067050 -0.054859 -0.018286     48.000000
  0.060954 -0.048763 -0.012191     48.000000
  0.054859 -0.042668 -0.006095     48.000000
  0.048763 -0.036573 -0.000000     24.000000
 -0.000000  0.012191  0.060954     24.000000
 -0.006095  0.018286  0.067050     48.000000
 -0.012191  0.024382  0.073145     48.000000
 -0.018286  0.030477  0.079241     48.000000
 -0.024382  0.036573  0.085336     48.000000
 -0.030477  0.042668  0.091431     48.000000
 -0.036573  0.048763  0.097527     48.000000
 -0.042668  0.054859  0.103622     48.000000
 -0.048763  0.060954  0.109718     48.000000
 -0.054859  0.067050  0.115813     48.000000
  0.121908 -0.109718 -0.060954     48.000000
  0.115813 -0.103622 -0.054859     48.000000
  0.109718 -0.097527 -0.048763     48.000000
  0.103622 -0.091431 -0.042668     48.000000
  0.097527 -0.085336 -0.036573     48.000000
  0.091431 -0.079241 -0.030477     48.000000
  0.085336 -0.073145 -0.024382     48.000000
  0.079241 -0.067050 -0.018286     48.000000
  0.073145 -0.060954 -0.012191     48.000000
  0.067050 -0.054859 -0.006095     48.000000
  0.060954 -0.048763  0.000000     24.000000
  0.000000  0.012191  0.073145     24.000000
 -0.006095  0.018286  0.079241     48.000000
 -0.012191  0.024382  0.085336     48.000000
 -0.018286  0.030477  0.091431     48.000000
 -0.024382  0.036573  0.097527     48.000000
 -0.030477  0.042668  0.103622     48.000000
 -0.036573  0.048763  0.109718     48.000000
 -0.042668  0.054859  0.115813     48.000000
 -0.048763  0.060954  0.121908     48.000000
  0.128004 -0.115813 -0.054859     48.000000
  0.121908 -0.109718 -0.048763     48.000000
  0.115813 -0.103622 -0.042668     48.000000
  0.109718 -0.097527 -0.036573     48.000000
  0.103622 -0.091431 -0.030477     48.000000
  0.097527 -0.085336 -0.024382     48.000000
  0.091431 -0.079241 -0.018286     48.000000
  0.085336 -0.073145 -0.012191     48.000000
  0.079241 -0.067050 -0.006095     48.000000
  0.073145 -0.060954  0.000000     24.000000
  0.000000  0.012191  0.085336     24.000000
 -0.006095  0.018286  0.091431     48.000000
 -0.012191  0.024382  0.097527     48.000000
 -0.018286  0.030477  0.103622     48.000000
 -0.024382  0.036573  0.109718     48.000000
 -0.030477  0.042668  0.115813     48.000000
 -0.036573  0.048763  0.121908     48.000000
 -0.042668  0.054859  0.128004     48.000000
  0.134099 -0.121908 -0.048763     48.000000
  0.128004 -0.115813 -0.042668     48.000000
  0.121908 -0.109718 -0.036573     48.000000
  0.115813 -0.103622 -0.030477     48.000000
  0.109718 -0.097527 -0.024382     48.000000
  0.103622 -0.091431 -0.018286     48.000000
  0.097527 -0.085336 -0.012191     48.000000
  0.091431 -0.079241 -0.006095     48.000000
  0.085336 -0.073145 -0.000000     24.000000
 -0.000000  0.012191  0.097527     24.000000
 -0.006095  0.018286  0.103622     48.000000
 -0.012191  0.024382  0.109718     48.000000
 -0.018286  0.030477  0.115813     48.000000
 -0.024382  0.036573  0.121908     48.000000
 -0.030477  0.042668  0.128004     48.000000
 -0.036573  0.048763  0.134099     48.000000
  0.140195 -0.128004 -0.042668     48.000000
  0.134099 -0.121908 -0.036573     48.000000
  0.128004 -0.115813 -0.030477     48.000000
  0.121908 -0.109718 -0.024382     48.000000
  0.115813 -0.103622 -0.018286     48.000000
  0.109718 -0.097527 -0.012191     48.000000
  0.103622 -0.091431 -0.006095     48.000000
  0.097527 -0.085336 -0.000000     24.000000
 -0.000000  0.012191  0.109718     24.000000
 -0.006095  0.018286  0.115813     48.000000
 -0.012191  0.024382  0.121908     48.000000
 -0.018286  0.030477  0.128004     48.000000
 -0.024382  0.036573  0.134099     48.000000
 -0.030477  0.042668  0.140195     48.000000
  0.146290 -0.134099 -0.036573     48.000000
  0.140195 -0.128004 -0.030477     48.000000
  0.134099 -0.121908 -0.024382     48.000000
  0.128004 -0.115813 -0.018286     48.000000
  0.121908 -0.109718 -0.012191     48.000000
  0.115813 -0.103622 -0.006095     48.000000
  0.109718 -0.097527  0.000000     24.000000
  0.000000  0.012191  0.121908     24.000000
 -0.006095  0.018286  0.128004     48.000000
 -0.012191  0.024382  0.134099     48.000000
 -0.018286  0.030477  0.140195     48.000000
 -0.024382  0.036573  0.146290     48.000000
  0.152386 -0.140195 -0.030477     48.000000
  0.146290 -0.134099 -0.024382     48.000000
  0.140195 -0.128004 -0.018286     48.000000
  0.134099 -0.121908 -0.012191     48.000000
  0.128004 -0.115813 -0.006095     48.000000
  0.121908 -0.109718  0.000000     24.000000
  0.000000  0.012191  0.134099     24.000000
 -0.006095  0.018286  0.140195     48.000000
 -0.012191  0.024382  0.146290     48.000000
 -0.018286  0.030477  0.152386     48.000000
  0.158481 -0.146290 -0.024382     48.000000
  0.152386 -0.140195 -0.018286     48.000000
  0.146290 -0.134099 -0.012191     48.000000
  0.140195 -0.128004 -0.006095     48.000000
  0.134099 -0.121908  0.000000     24.000000
  0.000000  0.012191  0.146290     24.000000
 -0.006095  0.018286  0.152386     48.000000
 -0.012191  0.024382  0.158481     48.000000
  0.164576 -0.152386 -0.018286     48.000000
  0.158481 -0.146290 -0.012191     48.000000
  0.152386 -0.140195 -0.006095     48.000000
  0.146290 -0.134099 -0.000000     24.000000
 -0.000000  0.012191  0.158481     24.000000
 -0.006095  0.018286  0.164576     48.000000
  0.170672 -0.158481 -0.012191     48.000000
  0.164576 -0.152386 -0.006095     48.000000
  0.158481 -0.146290  0.000000     24.000000
  0.000000  0.012191  0.170672     24.000000
  0.176767 -0.164576 -0.006095     48.000000
  0.170672 -0.158481  0.000000     24.000000
  0.182863 -0.170672 -0.000000     12.000000
  0.000000  0.024382  0.048763     24.000000
 -0.006095  0.030477  0.054859     48.000000
 -0.012191  0.036573  0.060954     48.000000
 -0.018286  0.042668  0.067050     48.000000
 -0.024382  0.048763  0.073145     48.000000
 -0.030477  0.054859  0.079241     48.000000
 -0.036573  0.060954  0.085336     48.000000
 -0.042668  0.067050  0.091431     48.000000
 -0.048763  0.073145  0.097527     48.000000
 -0.054859  0.079241  0.103622     48.000000
  0.121908 -0.097527 -0.073145     48.000000
  0.115813 -0.091431 -0.067050     24.000000
 -0.000000  0.024382  0.060954     24.000000
 -0.006095  0.030477  0.067050     48.000000
 -0.012191  0.036573  0.073145     48.000000
 -0.018286  0.042668  0.079241     48.000000
 -0.024382  0.048763  0.085336     48.000000
 -0.030477  0.054859  0.091431     48.000000
 -0.036573  0.060954  0.097527     48.000000
 -0.042668  0.067050  0.103622     48.000000
 -0.048763  0.073145  0.109718     48.000000
  0.128004 -0.103622 -0.067050     48.000000
  0.121908 -0.097527 -0.060954     48.000000
  0.115813 -0.091431 -0.054859     48.000000
  0.109718 -0.085336 -0.048763     48.000000
  0.103622 -0.079241 -0.042668     48.000000
  0.097527 -0.073145 -0.036573     48.000000
  0.091431 -0.067050 -0.030477     48.000000
  0.085336 -0.060954 -0.024382     48.000000
  0.079241 -0.054859 -0.018286     48.000000
  0.073145 -0.048763 -0.012191     48.000000
  0.067050 -0.042668 -0.006095     48.000000
  0.060954 -0.036573 -0.000000     24.000000
  0.000000  0.024382  0.073145     24.000000
 -0.006095  0.030477  0.079241     48.000000
 -0.012191  0.036573  0.085336     48.000000
 -0.018286  0.042668  0.091431     48.000000
 -0.024382  0.048763  0.097527     48.000000
 -0.030477  0.054859  0.103622     48.000000
 -0.036573  0.060954  0.109718     48.000000
 -0.042668  0.067050  0.115813     48.000000
  0.134099 -0.109718 -0.060954     48.000000
  0.128004 -0.103622 -0.054859     48.000000
  0.121908 -0.097527 -0.048763     48.000000
  0.115813 -0.091431 -0.042668     48.000000
  0.109718 -0.085336 -0.036573     48.000000
  0.103622 -0.079241 -0.030477     48.000000
  0.097527 -0.073145 -0.024382     48.000000
  0.091431 -0.067050 -0.018286     48.000000
  0.085336 -0.060954 -0.012191     48.000000
  0.079241 -0.054859 -0.006095     48.000000
  0.073145 -0.048763  0.000000     24.000000
  0.000000  0.024382  0.085336     24.000000
 -0.006095  0.030477  0.091431     48.000000
 -0.012191  0.036573  0.097527     48.000000
 -0.018286  0.042668  0.103622     48.000000
 -0.024382  0.048763  0.109718     48.000000
 -0.030477  0.054859  0.115813     48.000000
 -0.036573  0.060954  0.121908     48.000000
  0.140195 -0.115813 -0.054859     48.000000
  0.134099 -0.109718 -0.048763     48.000000
  0.128004 -0.103622 -0.042668     48.000000
  0.121908 -0.097527 -0.036573     48.000000
  0.115813 -0.091431 -0.030477     48.000000
  0.109718 -0.085336 -0.024382     48.000000
  0.103622 -0.079241 -0.018286     48.000000
  0.097527 -0.073145 -0.012191     48.000000
  0.091431 -0.067050 -0.006095     48.000000
  0.085336 -0.060954  0.000000     24.000000
  0.000000  0.024382  0.097527     24.000000
 -0.006095  0.030477  0.103622     48.000000
 -0.012191  0.036573  0.109718     48.000000
 -0.018286  0.042668  0.115813     48.000000
 -0.024382  0.048763  0.121908     48.000000
 -0.030477  0.054859  0.128004     48.000000
  0.146290 -0.121908 -0.048763     48.000000
  0.140195 -0.115813 -0.042668     48.000000
  0.134099 -0.109718 -0.036573     48.000000
  0.128004 -0.103622 -0.030477     48.000000
  0.121908 -0.097527 -0.024382     48.000000
  0.115813 -0.091431 -0.018286     48.000000
  0.109718 -0.085336 -0.012191     48.000000
  0.103622 -0.079241 -0.006095     48.000000
  0.097527 -0.073145 -0.000000     24.000000
  0.000000  0.024382  0.109718     24.000000
 -0.006095  0.030477  0.115813     48.000000
 -0.012191  0.036573  0.121908     48.000000
 -0.018286  0.042668  0.128004     48.000000
 -0.024382  0.048763  0.134099     48.000000
  0.152386 -0.128004 -0.042668     48.000000
  0.146290 -0.121908 -0.036573     48.000000
  0.140195 -0.115813 -0.030477     48.000000
  0.134099 -0.109718 -0.024382     48.000000
  0.128004 -0.103622 -0.018286     48.000000
  0.121908 -0.097527 -0.012191     48.000000
  0.115813 -0.091431 -0.006095     48.000000
  0.109718 -0.085336 -0.000000     24.000000
  0.000000  0.024382  0.121908     24.000000
 -0.006095  0.030477  0.128004     48.000000
 -0.012191  0.036573  0.134099     48.000000
 -0.018286  0.042668  0.140195     48.000000
  0.158481 -0.134099 -0.036573     48.000000
  0.152386 -0.128004 -0.030477     48.000000
  0.146290 -0.121908 -0.024382     48.000000
  0.140195 -0.115813 -0.018286     48.000000
  0.134099 -0.109718 -0.012191     48.000000
  0.128004 -0.103622 -0.006095     48.000000
  0.121908 -0.097527  0.000000     24.000000
  0.000000  0.024382  0.134099     24.000000
 -0.006095  0.030477  0.140195     48.000000
 -0.012191  0.036573  0.146290     48.000000
  0.164576 -0.140195 -0.030477     48.000000
  0.158481 -0.134099 -0.024382     48.000000
  0.152386 -0.128004 -0.018286     48.000000
  0.146290 -0.121908 -0.012191     48.000000
  0.140195 -0.115813 -0.006095     48.000000
  0.134099 -0.109718  0.000000     24.000000
  0.000000  0.024382  0.146290     24.000000
 -0.006095  0.030477  0.152386     48.000000
  0.170672 -0.146290 -0.024382     48.000000
  0.164576 -0.140195 -0.018286     48.000000
  0.158481 -0.134099 -0.012191     48.000000
  0.152386 -0.128004 -0.006095     48.000000
  0.146290 -0.121908 -0.000000     24.000000
  0.000000  0.024382  0.158481     24.000000
  0.176767 -0.152386 -0.018286     48.000000
  0.170672 -0.146290 -0.012191     48.000000
  0.164576 -0.140195 -0.006095     48.000000
  0.158481 -0.134099 -0.000000     24.000000
  0.182863 -0.158481 -0.012191     24.000000
  0.176767 -0.152386 -0.006095     48.000000
  0.170672 -0.146290  0.000000     24.000000
  0.182863 -0.158481  0.000000     12.000000
  0.000000  0.036573  0.073145     24.000000
 -0.006095  0.042668  0.079241     48.000000
 -0.012191  0.048763  0.085336     48.000000
 -0.018286  0.054859  0.091431     48.000000
 -0.024382  0.060954  0.097527     48.000000
 -0.030477  0.067050  0.103622     48.000000
 -0.036573  0.073145  0.109718     48.000000
  0.140195 -0.103622 -0.067050     48.000000
  0.134099 -0.097527 -0.060954     48.000000
  0.128004 -0.091431 -0.054859     24.000000
  0.000000  0.036573  0.085336     24.000000
 -0.006095  0.042668  0.091431     48.000000
 -0.012191  0.048763  0.097527     48.000000
 -0.018286  0.054859  0.103622     48.000000
 -0.024382  0.060954  0.109718     48.000000
 -0.030477  0.067050  0.115813     48.000000
  0.146290 -0.109718 -0.060954     48.000000
  0.140195 -0.103622 -0.054859     48.000000
  0.134099 -0.097527 -0.048763     48.000000
  0.128004 -0.091431 -0.042668     48.000000
  0.121908 -0.085336 -0.036573     48.000000
  0.115813 -0.079241 -0.030477     48.000000
  0.109718 -0.073145 -0.024382     48.000000
  0.103622 -0.067050 -0.018286     48.000000
  0.097527 -0.060954 -0.012191     48.000000
  0.091431 -0.054859 -0.006095     48.000000
  0.085336 -0.048763  0.000000     24.000000
  0.000000  0.036573  0.097527     24.000000
 -0.006095  0.042668  0.103622     48.000000
 -0.012191  0.048763  0.109718     48.000000
 -0.018286  0.054859  0.115813     48.000000
 -0.024382  0.060954  0.121908     48.000000
  0.152386 -0.115813 -0.054859     48.000000
  0.146290 -0.109718 -0.048763     48.000000
  0.140195 -0.103622 -0.042668     48.000000
  0.134099 -0.097527 -0.036573     48.000000
  0.128004 -0.091431 -0.030477     48.000000
  0.121908 -0.085336 -0.024382     48.000000
  0.115813 -0.079241 -0.018286     48.000000
  0.109718 -0.073145 -0.012191     48.000000
  0.103622 -0.067050 -0.006095     48.000000
  0.097527 -0.060954 -0.000000     24.000000
  0.000000  0.036573  0.109718     24.000000
 -0.006095  0.042668  0.115813     48.000000
 -0.012191  0.048763  0.121908     48.000000
 -0.018286  0.054859  0.128004     48.000000
  0.158481 -0.121908 -0.048763     48.000000
  0.152386 -0.115813 -0.042668     48.000000
  0.146290 -0.109718 -0.036573     48.000000
  0.140195 -0.103622 -0.030477     48.000000
  0.134099 -0.097527 -0.024382     48.000000
  0.128004 -0.091431 -0.018286     48.000000
  0.121908 -0.085336 -0.012191     48.000000
  0.115813 -0.079241 -0.006095     48.000000
  0.109718 -0.073145 -0.000000     24.000000
  0.000000  0.036573  0.121908     24.000000
 -0.006095  0.042668  0.128004     48.000000
 -0.012191  0.048763  0.134099     48.000000
  0.164576 -0.128004 -0.042668     48.000000
  0.158481 -0.121908 -0.036573     48.000000
  0.152386 -0.115813 -0.030477     48.000000
  0.146290 -0.109718 -0.024382     48.000000
  0.140195 -0.103622 -0.018286     48.000000
  0.134099 -0.097527 -0.012191     48.000000
  0.128004 -0.091431 -0.006095     48.000000
  0.121908 -0.085336 -0.000000     24.000000
  0.000000  0.036573  0.134099     24.000000
 -0.006095  0.042668  0.140195     48.000000
  0.170672 -0.134099 -0.036573     48.000000
  0.164576 -0.128004 -0.030477     48.000000
  0.158481 -0.121908 -0.024382     48.000000
  0.152386 -0.115813 -0.018286     48.000000
  0.146290 -0.109718 -0.012191     48.000000
  0.140195 -0.103622 -0.006095     48.000000
  0.134099 -0.097527  0.000000     24.000000
  0.000000  0.036573  0.146290     24.000000
  0.176767 -0.140195 -0.030477     48.000000
  0.170672 -0.134099 -0.024382     48.000000
  0.164576 -0.128004 -0.018286     48.000000
  0.158481 -0.121908 -0.012191     48.000000
  0.152386 -0.115813 -0.006095     48.000000
  0.146290 -0.109718  0.000000     24.000000
  0.182863 -0.146290 -0.024382     24.000000
  0.176767 -0.140195 -0.018286     48.000000
  0.170672 -0.134099 -0.012191     48.000000
  0.164576 -0.128004 -0.006095     48.000000
  0.158481 -0.121908 -0.000000     24.000000
  0.182863 -0.146290 -0.012191     24.000000
  0.176767 -0.140195 -0.006095     48.000000
  0.170672 -0.134099 -0.000000     24.000000
  0.182863 -0.146290 -0.000000     12.000000
  0.000000  0.048763  0.097527     24.000000
 -0.006095  0.054859  0.103622     48.000000
 -0.012191  0.060954  0.109718     48.000000
 -0.018286  0.067050  0.115813     48.000000
  0.158481 -0.109718 -0.060954     48.000000
  0.152386 -0.103622 -0.054859     48.000000
  0.146290 -0.097527 -0.048763     48.000000
  0.140195 -0.091431 -0.042668     24.000000
 -0.000000  0.048763  0.109718     24.000000
 -0.006095  0.054859  0.115813     48.000000
 -0.012191  0.060954  0.121908     48.000000
  0.164576 -0.115813 -0.054859     48.000000
  0.158481 -0.109718 -0.048763     48.000000
  0.152386 -0.103622 -0.042668     48.000000
  0.146290 -0.097527 -0.036573     48.000000
  0.140195 -0.091431 -0.030477     48.000000
  0.134099 -0.085336 -0.024382     48.000000
  0.128004 -0.079241 -0.018286     48.000000
  0.121908 -0.073145 -0.012191     48.000000
  0.115813 -0.067050 -0.006095     48.000000
  0.109718 -0.060954  0.000000     24.000000
 -0.000000  0.048763  0.121908     24.000000
 -0.006095  0.054859  0.128004     48.000000
  0.170672 -0.121908 -0.048763     48.000000
  0.164576 -0.115813 -0.042668     48.000000
  0.158481 -0.109718 -0.036573     48.000000
  0.152386 -0.103622 -0.030477     48.000000
  0.146290 -0.097527 -0.024382     48.000000
  0.140195 -0.091431 -0.018286     48.000000
  0.134099 -0.085336 -0.012191     48.000000
  0.128004 -0.079241 -0.006095     48.000000
  0.121908 -0.073145 -0.000000     24.000000
  0.000000  0.048763  0.134099     24.000000
  0.176767 -0.128004 -0.042668     48.000000
  0.170672 -0.121908 -0.036573     48.000000
  0.164576 -0.115813 -0.030477     48.000000
  0.158481 -0.109718 -0.024382     48.000000
  0.152386 -0.103622 -0.018286     48.000000
  0.146290 -0.097527 -0.012191     48.000000
  0.140195 -0.091431 -0.006095     48.000000
  0.134099 -0.085336  0.000000     24.000000
  0.182863 -0.134099 -0.036573     24.000000
  0.176767 -0.128004 -0.030477     48.000000
  0.170672 -0.121908 -0.024382     48.000000
  0.164576 -0.115813 -0.018286     48.000000
  0.158481 -0.109718 -0.012191     48.000000
  0.152386 -0.103622 -0.006095     48.000000
  0.146290 -0.097527  0.000000     24.000000
  0.182863 -0.134099 -0.024382     24.000000
  0.176767 -0.128004 -0.018286     48.000000
  0.170672 -0.121908 -0.012191     48.000000
  0.164576 -0.115813 -0.006095     48.000000
  0.158481 -0.109718  0.000000     24.000000
  0.182863 -0.134099 -0.012191     24.000000
  0.176767 -0.128004 -0.006095     48.000000
  0.170672 -0.121908  0.000000     24.000000
  0.182863 -0.134099 -0.000000     12.000000
 -0.000000  0.060954  0.121908     24.000000
  0.176767 -0.115813 -0.054859     48.000000
  0.170672 -0.109718 -0.048763     48.000000
  0.164576 -0.103622 -0.042668     48.000000
  0.158481 -0.097527 -0.036573     48.000000
  0.152386 -0.091431 -0.030477     24.000000
  0.182863 -0.121908 -0.048763     24.000000
  0.176767 -0.115813 -0.042668     48.000000
  0.170672 -0.109718 -0.036573     48.000000
  0.164576 -0.103622 -0.030477     48.000000
  0.158481 -0.097527 -0.024382     48.000000
  0.152386 -0.091431 -0.018286     48.000000
  0.146290 -0.085336 -0.012191     48.000000
  0.140195 -0.079241 -0.006095     48.000000
  0.134099 -0.073145  0.000000     24.000000
  0.182863 -0.121908 -0.036573     24.000000
  0.176767 -0.115813 -0.030477     48.000000
  0.170672 -0.109718 -0.024382     48.000000
  0.164576 -0.103622 -0.018286     48.000000
  0.158481 -0.097527 -0.012191     48.000000
  0.152386 -0.091431 -0.006095     48.000000
  0.146290 -0.085336  0.000000     24.000000
  0.182863 -0.121908 -0.024382     24.000000
  0.176767 -0.115813 -0.018286     48.000000
  0.170672 -0.109718 -0.012191     48.000000
  0.164576 -0.103622 -0.006095     48.000000
  0.158481 -0.097527  0.000000     24.000000
  0.182863 -0.121908 -0.012191     24.000000
  0.176767 -0.115813 -0.006095     48.000000
  0.170672 -0.109718  0.000000     24.000000
  0.182863 -0.121908  0.000000     12.000000
  0.182863 -0.109718 -0.036573     24.000000
  0.176767 -0.103622 -0.030477     48.000000
  0.170672 -0.097527 -0.024382     48.000000
  0.164576 -0.091431 -0.018286     24.000000
  0.182863 -0.109718 -0.024382     24.000000
  0.176767 -0.103622 -0.018286     48.000000
  0.170672 -0.097527 -0.012191     48.000000
  0.164576 -0.091431 -0.006095     48.000000
  0.158481 -0.085336 -0.000000     24.000000
  0.182863 -0.109718 -0.012191     24.000000
  0.176767 -0.103622 -0.006095     48.000000
  0.170672 -0.097527  0.000000     24.000000
  0.182863 -0.109718  0.000000     12.000000
  0.182863 -0.097527 -0.012191     24.000000
  0.176767 -0.091431 -0.006095     24.000000
  0.182863 -0.097527  0.000000     12.000000
 


--------------------------------------------------------------------------------------------------------




 Dimension of arrays:
   k-points           NKPTS =    752   k-points in BZ     NKDIM =    752   number of bands    NBANDS=      8
   number of dos      NEDOS =    301   number of ions     NIONS =      2
   non local maximal  LDIM  =      4   non local SUM 2l+1 LMDIM =      8
   total plane-waves  NPLWV =  27000
[...]
      8      12.6244      0.00000

 k-point   716 :      -0.3333    0.3667    0.1667
  band No.  band energies     occupation 
      1      -2.8108      2.00000
      2      -1.2567      2.00000
      3       1.6007      2.00000
      4       2.6889      2.00000
      5       8.8654      0.00000
      6       9.6124      0.00000
      7      11.0812      0.00000
      8      11.9603      0.00000

 k-point   717 :      -0.3000    0.3667    0.1667
  band No.  band energies     occupation 
      1      -2.8432      2.00000
      2      -1.2205      2.00000
      3       1.5785      2.00000
      4       2.7233      2.00000
      5       8.9695      0.00000
      6       9.5198      0.00000
      7      11.1897      0.00000
      8      11.8607      0.00000

 k-point   718 :      -0.2667    0.3667    0.1667
  band No.  band energies     occupation 
      1      -2.9979      2.00000
      2      -1.0519      2.00000
      3       1.5945      2.00000
      4       2.8003      2.00000
      5       9.0883      0.00000
      6       9.4296      0.00000
      7      10.6268      0.00000
      8      12.5181      0.00000

 k-point   719 :      -0.2333    0.3667    0.1667
  band No.  band energies     occupation 
      1      -3.2180      2.00000
      2      -0.8128      2.00000
      3       1.6567      2.00000
      4       2.9147      2.00000
      5       9.2067      0.00000
      6       9.3232      0.00000
      7      10.1215      0.00000
      8      13.2333      0.00000

 k-point   720 :      -0.2000    0.3667    0.1667
  band No.  band energies     occupation 
      1      -3.4616      2.00000
      2      -0.5515      2.00000
      3       1.7737      2.00000
      4       3.0594      2.00000
      5       9.0549      0.00000
      6       9.3702      0.00000
      7       9.8100      0.00000
      8      13.2480      0.00000

 k-point   721 :      -0.4333    0.4000    0.1667
  band No.  band energies     occupation 
      1      -3.2295      2.00000
      2      -0.7769      2.00000
      3       1.9483      2.00000
      4       2.6825      2.00000
      5       8.3132      0.00000
      6       8.8085      0.00000
      7      10.6920      0.00000
      8      13.9562      0.00000

 k-point   722 :      -0.4000    0.4000    0.1667
  band No.  band energies     occupation 
      1      -2.9846      2.00000
      2      -1.0282      2.00000
      3       1.8141      2.00000
      4       2.5554      2.00000
      5       8.5202      0.00000
      6       9.1504      0.00000
      7      10.5555      0.00000
      8      13.4187      0.00000

 k-point   723 :      -0.3667    0.4000    0.1667
  band No.  band energies     occupation 
      1      -2.7654      2.00000
      2      -1.2501      2.00000
      3       1.6944      2.00000
      4       2.4887      2.00000
      5       8.6187      0.00000
      6       9.6513      0.00000
      7      10.4551      0.00000
      8      12.6976      0.00000

 k-point   724 :      -0.3333    0.4000    0.1667
  band No.  band energies     occupation 
      1      -2.6222      2.00000
      2      -1.3924      2.00000
      3       1.5966      2.00000
      4       2.4824      2.00000
      5       8.7099      0.00000
      6      10.0446      0.00000
      7      10.5435      0.00000
      8      12.0059      0.00000

 k-point   725 :      -0.3000    0.4000    0.1667
  band No.  band energies     occupation 
      1      -2.6221      2.00000
      2      -1.3894      2.00000
      3       1.5324      2.00000
      4       2.5296      2.00000
      5       8.8160      0.00000
      6      10.0598      0.00000
      7      10.9918      0.00000
      8      11.4239      0.00000

 k-point   726 :      -0.2667    0.4000    0.1667
  band No.  band energies     occupation 
      1      -2.7631      2.00000
      2      -1.2465      2.00000
      3       1.5141      2.00000
      4       2.6224      2.00000
      5       8.9406      0.00000
      6       9.9558      0.00000
      7      10.6887      0.00000
      8      11.8003      0.00000

 k-point   727 :      -0.2333    0.4000    0.1667
  band No.  band energies     occupation 
      1      -2.9778      2.00000
      2      -1.0363      2.00000
      3       1.5527      2.00000
      4       2.7532      2.00000
      5       9.0824      0.00000
      6       9.7227      0.00000
      7      10.2802      0.00000
      8      12.4993      0.00000

 k-point   728 :      -0.4000    0.4333    0.1667
  band No.  band energies     occupation 
      1      -2.8376      2.00000
      2      -1.1843      2.00000
      3       1.9311      2.00000
      4       2.4143      2.00000
      5       8.2921      0.00000
      6       8.6160      0.00000
      7      11.1968      0.00000
      8      13.5200      0.00000

 k-point   729 :      -0.3667    0.4333    0.1667
  band No.  band energies     occupation 
      1      -2.6027      2.00000
      2      -1.4072      2.00000
      3       1.8124      2.00000
      4       2.3134      2.00000
      5       8.4779      0.00000
      6       9.0298      0.00000
      7      11.0617      0.00000
      8      12.7908      0.00000

 k-point   730 :      -0.3333    0.4333    0.1667
  band No.  band energies     occupation 
      1      -2.4270      2.00000
      2      -1.5705      2.00000
      3       1.6794      2.00000
      4       2.3061      2.00000
      5       8.5727      0.00000
      6       9.5968      0.00000
      7      10.9481      0.00000
      8      12.0848      0.00000

 k-point   731 :      -0.3000    0.4333    0.1667
  band No.  band energies     occupation 
      1      -2.4044      2.00000
      2      -1.5847      2.00000
      3       1.5689      2.00000
      4       2.3664      2.00000
      5       8.6764      0.00000
      6      10.1574      0.00000
      7      10.8925      0.00000
      8      11.4279      0.00000

 k-point   732 :      -0.2667    0.4333    0.1667
  band No.  band energies     occupation 
      1      -2.5478      2.00000
      2      -1.4432      2.00000
      3       1.5084      2.00000
      4       2.4753      2.00000
      5       8.7992      0.00000
      6      10.3554      0.00000
      7      10.8781      0.00000
      8      11.1827      0.00000

 k-point   733 :      -0.3667    0.4667    0.1667
  band No.  band energies     occupation 
      1      -2.4314      2.00000
      2      -1.5990      2.00000
      3       1.9661      2.00000
      4       2.2053      2.00000
      5       8.3098      0.00000
      6       8.4698      0.00000
      7      11.7354      0.00000
      8      12.9023      0.00000

 k-point   734 :      -0.3333    0.4667    0.1667
  band No.  band energies     occupation 
      1      -2.2251      2.00000
      2      -1.7825      2.00000
      3       1.8385      2.00000
      4       2.1635      2.00000
      5       8.4580      0.00000
      6       8.9676      0.00000
      7      11.6043      0.00000
      8      12.1859      0.00000

 k-point   735 :      -0.3000    0.4667    0.1667
  band No.  band energies     occupation 
      1      -2.2206      2.00000
      2      -1.7703      2.00000
      3       1.6787      2.00000
      4       2.2399      2.00000
      5       8.5572      0.00000
      6       9.5763      0.00000
      7      11.4341      0.00000
      8      11.5609      0.00000

 k-point   736 :      -0.3333    0.5000    0.1667
  band No.  band energies     occupation 
      1      -2.0166      2.00000
      2      -2.0166      2.00000
      3       2.0565      2.00000
      4       2.0565      2.00000
      5       8.3684      0.00000
      6       8.3684      0.00000
      7      12.3050      0.00000
      8      12.3050      0.00000

 k-point   737 :      -0.4000    0.4000    0.2000
  band No.  band energies     occupation 
      1      -3.1089      2.00000
      2      -0.8979      2.00000
      3       1.7275      2.00000
      4       2.6946      2.00000
      5       8.9994      0.00000
      6       9.3965      0.00000
      7       9.9885      0.00000
      8      13.3202      0.00000

 k-point   738 :      -0.3667    0.4000    0.2000
  band No.  band energies     occupation 
      1      -2.8750      2.00000
      2      -1.1308      2.00000
      3       1.6392      2.00000
      4       2.5624      2.00000
      5       9.2002      0.00000
      6       9.5799      0.00000
      7      10.0707      0.00000
      8      12.5889      0.00000

 k-point   739 :      -0.3333    0.4000    0.2000
  band No.  band energies     occupation 
      1      -2.6876      2.00000
      2      -1.3193      2.00000
      3       1.5899      2.00000
      4       2.4785      2.00000
      5       9.2683      0.00000
      6       9.5916      0.00000
      7      10.5286      0.00000
      8      11.8912      0.00000

 k-point   740 :      -0.3000    0.4000    0.2000
  band No.  band energies     occupation 
      1      -2.6104      2.00000
      2      -1.3972      2.00000
      3       1.5743      2.00000
      4       2.4496      2.00000
      5       9.2927      0.00000
      6       9.5692      0.00000
      7      10.9790      0.00000
      8      11.3852      0.00000

 k-point   741 :      -0.3667    0.4333    0.2000
  band No.  band energies     occupation 
      1      -2.7424      2.00000
      2      -1.2532      2.00000
      3       1.7356      2.00000
      4       2.3791      2.00000
      5       8.9774      0.00000
      6       9.2559      0.00000
      7      10.4248      0.00000
      8      12.6802      0.00000

 k-point   742 :      -0.3333    0.4333    0.2000
  band No.  band energies     occupation 
      1      -2.5279      2.00000
      2      -1.4548      2.00000
      3       1.6746      2.00000
      4       2.2687      2.00000
      5       9.1600      0.00000
      6       9.6656      0.00000
      7      10.3477      0.00000
      8      11.9651      0.00000

 k-point   743 :      -0.3000    0.4333    0.2000
  band No.  band energies     occupation 
      1      -2.4062      2.00000
      2      -1.5694      2.00000
      3       1.6239      2.00000
      4       2.2392      2.00000
      5       9.2521      0.00000
      6       9.9605      0.00000
      7      10.5307      0.00000
      8      11.3055      0.00000

 k-point   744 :      -0.2667    0.4333    0.2000
  band No.  band energies     occupation 
      1      -2.4596      2.00000
      2      -1.5157      2.00000
      3       1.5906      2.00000
      4       2.2879      2.00000
      5       9.3493      0.00000
      6       9.9211      0.00000
      7      10.5789      0.00000
      8      11.2199      0.00000

 k-point   745 :      -0.2333    0.4333    0.2000
  band No.  band energies     occupation 
      1      -2.6438      2.00000
      2      -1.3409      2.00000
      3       1.5911      2.00000
      4       2.4005      2.00000
      5       9.4487      0.00000
      6       9.6958      0.00000
      7      10.1861      0.00000
      8      11.8691      0.00000

 k-point   746 :      -0.3333    0.4667    0.2000
  band No.  band energies     occupation 
      1      -2.3679      2.00000
      2      -1.6183      2.00000
      3       1.8020      2.00000
      4       2.1228      2.00000
      5       8.9912      0.00000
      6       9.1313      0.00000
      7      10.9298      0.00000
      8      12.0642      0.00000

 k-point   747 :      -0.3000    0.4667    0.2000
  band No.  band energies     occupation 
      1      -2.1994      2.00000
      2      -1.7698      2.00000
      3       1.7458      2.00000
      4       2.0647      2.00000
      5       9.1396      0.00000
      6       9.6479      0.00000
      7      10.8250      0.00000
      8      11.3748      0.00000

 k-point   748 :      -0.2667    0.4667    0.2000
  band No.  band energies     occupation 
      1      -2.2581      2.00000
      2      -1.7059      2.00000
      3       1.6514      2.00000
      4       2.1416      2.00000
      5       9.2414      0.00000
      6      10.1292      0.00000
      7      10.7752      0.00000
      8      10.8260      0.00000

 k-point   749 :      -0.3000    0.5000    0.2000
  band No.  band energies     occupation 
      1      -1.9913      2.00000
      2      -1.9913      2.00000
      3       1.9303      2.00000
      4       1.9303      2.00000
      5       9.0423      0.00000
      6       9.0423      0.00000
      7      11.4789      0.00000
      8      11.4789      0.00000

 k-point   750 :      -0.3000    0.4667    0.2333
  band No.  band energies     occupation 
      1      -2.3083      2.00000
      2      -1.6540      2.00000
      3       1.6939      2.00000
      4       2.1008      2.00000
      5       9.6805      0.00000
      6       9.6952      0.00000
      7      10.3178      0.00000
      8      11.2746      0.00000

 k-point   751 :      -0.2667    0.4667    0.2333
  band No.  band energies     occupation 
      1      -2.1901      2.00000
      2      -1.7654      2.00000
      3       1.7144      2.00000
      4       2.0302      2.00000
      5       9.6932      0.00000
      6       9.9426      0.00000
      7      10.4921      0.00000
      8      10.7834      0.00000

 k-point   752 :      -0.2667    0.5000    0.2333
  band No.  band energies     occupation 
      1      -1.9771      2.00000
      2      -1.9771      2.00000
      3       1.8638      2.00000
      4       1.8638      2.00000
      5       9.7096      0.00000
      6       9.7096      0.00000
      7      10.7358      0.00000
      8      10.7358      0.00000


--------------------------------------------------------------------------------------------------------


 soft charge-density along one line, spin component           1
         0         1         2         3         4         5         6         7         8         9
 total charge-density along one line
 
 pseudopotential strength for first ion, spin component:           1
 18.437  25.723  -0.000  -0.000  -0.000  -0.000  -0.000  -0.000
 25.723  35.893  -0.000  -0.000  -0.000  -0.000  -0.000  -0.000
 -0.000  -0.000   4.181  -0.000  -0.000   7.791  -0.000  -0.000
 -0.000  -0.000  -0.000   4.181  -0.000  -0.000   7.791  -0.000
 -0.000  -0.000  -0.000  -0.000   4.181  -0.000  -0.000   7.791
 -0.000  -0.000   7.791  -0.000  -0.000  14.528  -0.000  -0.000
 -0.000  -0.000  -0.000   7.791  -0.000  -0.000  14.528  -0.000
 -0.000  -0.000  -0.000  -0.000   7.791  -0.000  -0.000  14.528
 total augmentation occupancy for first ion, spin component:           1
  5.528  -2.064   0.000   0.000   0.000   0.000   0.000   0.000
 -2.064   0.888   0.000   0.000   0.000  -0.000  -0.000  -0.000
  0.000   0.000   2.904  -0.000   0.000  -0.649   0.000  -0.000
  0.000   0.000  -0.000   2.904   0.000   0.000  -0.649   0.000
  0.000   0.000   0.000   0.000   2.904  -0.000   0.000  -0.649
  0.000  -0.000  -0.649   0.000  -0.000   0.153   0.000  -0.000
  0.000  -0.000   0.000  -0.649  -0.000   0.000   0.153   0.000
  0.000  -0.000  -0.000  -0.000  -0.649  -0.000   0.000   0.153


------------------------ aborting loop because EDIFF is reached ----------------------------------------





 total charge

# of ion       s       p       d       tot
------------------------------------------
    1        0.751   0.928   0.000   1.679
    2        0.751   0.928   0.000   1.679
--------------------------------------------------
tot          1.502   1.856   0.000   3.358
 
    CHARGE:  cpu time      0.4473: real time      0.4497
    FORLOC:  cpu time      0.0007: real time      0.0007
    FORNL :  cpu time      0.1343: real time      0.1350
    FORCOR:  cpu time      0.0150: real time      0.0150
    FORHAR:  cpu time      0.0034: real time      0.0034
    MIXING:  cpu time      0.0008: real time      0.0008
    OFIELD:  cpu time      0.0000: real time      0.0000

 VOLUME and BASIS-vectors are now :
 -----------------------------------------------------------------------------
  energy-cutoff  :      520.00
  volume of cell :       40.89
      direct lattice vectors                 reciprocal lattice vectors
     0.000000000  2.734291991  2.734291991    -0.182862694  0.182862694  0.182862694
     2.734291991  0.000000000  2.734291991     0.182862694 -0.182862694  0.182862694
     2.734291991  2.734291991  0.000000000     0.182862694  0.182862694 -0.182862694

  length of vectors
     3.866872817  3.866872817  3.866872817     0.316727477  0.316727477  0.316727477


 FORCES acting on ions
    electron-ion (+dipol)            ewald-force                    non-local-force                 convergence-correction
 -----------------------------------------------------------------------------------------------
   0.564E-08 0.564E-08 0.809E-08   -.325E-15 -.901E-15 0.113E-15   0.208E-16 0.416E-16 0.486E-16   0.139E-12 0.138E-12 0.138E-12
   -.564E-08 -.564E-08 -.809E-08   0.471E-15 0.992E-15 -.560E-15   -.208E-16 -.347E-16 -.486E-16   -.137E-12 -.138E-12 -.136E-12
 -----------------------------------------------------------------------------------------------
   -.435E-13 -.845E-13 -.123E-13   0.146E-15 0.902E-16 -.447E-15   0.000E+00 0.694E-17 0.000E+00   0.226E-14 0.646E-16 0.237E-14
 
 
 POSITION                                       TOTAL-FORCE (eV/Angst)
 -----------------------------------------------------------------------------------
      0.00000      0.00000      0.00000         0.000000      0.000000      0.000000
      1.36715      1.36715      1.36715        -0.000000     -0.000000     -0.000000
 -----------------------------------------------------------------------------------
    total drift:                               -0.000000     -0.000000     -0.000000


--------------------------------------------------------------------------------------------------------



  FREE ENERGIE OF THE ION-ELECTRON SYSTEM (eV)
  ---------------------------------------------------
  free  energy   TOTEN  =       -10.84993519 eV

  energy  without entropy=      -10.84993519  energy(sigma->0) =      -10.84993519
 


--------------------------------------------------------------------------------------------------------


    POTLOK:  cpu time      0.0166: real time      0.0167


--------------------------------------------------------------------------------------------------------


 stress matrix after NEB project (eV)
      0.00000      0.00000      0.00000
      0.00000      0.00000      0.00000
      0.00000      0.00000      0.00000
  FORCES: max atom, RMS     0.000000    0.000000
  FORCE total and by dimension    0.000000    0.000000
  Stress total and by dimension    0.000000    0.000000
     LOOP+:  cpu time     73.7106: real time     74.3522
    4ORBIT:  cpu time      0.0000: real time      0.0000



 total charge

# of ion       s       p       d       tot
------------------------------------------
    1        0.751   0.928   0.000   1.679
    2        0.751   0.928   0.000   1.679
--------------------------------------------------
tot          1.502   1.856   0.000   3.358
 

 total amount of memory used by VASP MPI-rank0   101216. kBytes
=======================================================================

   base      :      30000. kBytes
   nonl-proj :      53939. kBytes
   fftplans  :       1096. kBytes
   grid      :       2507. kBytes
   one-center:          6. kBytes
   wavefun   :      13668. kBytes
 
  
  
 General timing and accounting informations for this job:
 ========================================================
  
                  Total CPU time used (sec):       76.707
                            User time (sec):       76.345
                          System time (sec):        0.362
                         Elapsed time (sec):       78.163
  
                   Maximum memory used (kb):      232160.
                   Average memory used (kb):          N/A
  
                          Minor page faults:        62074
                          Major page faults:          808
                 Voluntary context switches:         3483
