PROCAR lm decomposed
# of k-points:  752         # of bands:    8         # of ions:    2

 k-point     1 :    0.00000000 0.00000000 0.00000000     weight = 0.00003704

band     1 # energy   -6.19853875 # occ.  2.00000000
 
ion      s     py     pz     px    dxy    dyz    dz2    dxz  x2-y2    tot
    1  0.212  0.000  0.000  0.000  0.000  0.000  0.000  0.000  0.000  0.212
    2  0.212  0.000  0.000  0.000  0.000  0.000  0.000  0.000  0.000  0.212
tot    0.424  0.000  0.000  0.000  0.000  0.000  0.000  0.000  0.000  0.424
 
band     2 # energy    5.61656135 # occ.  2.00000000
 
ion      s     py     pz     px    dxy    dyz    dz2    dxz  x2-y2    tot
    1  0.000  0.071  0.071  0.071  0.000  0.000  0.000  0.000  0.000  0.214
    2  0.000  0.071  0.071  0.071  0.000  0.000  0.000  0.000  0.000  0.214
tot    0.000  0.143  0.143  0.143  0.000  0.000  0.000  0.000  0.000  0.428
 
band     3 # energy    5.61656139 # occ.  2.00000000
 
ion      s     py     pz     px    dxy    dyz    dz2    dxz  x2-y2    tot
    1  0.000  0.138  0.017  0.058  0.000  0.000  0.000  0.000  0.000  0.214
    2  0.000  0.138  0.017  0.058  0.000  0.000  0.000  0.000  0.000  0.214
tot    0.000  0.276  0.035  0.117  0.000  0.000  0.000  0.000  0.000  0.428
 
band     4 # energy    5.61656139 # occ.  2.00000000
 
ion      s     py     pz     px    dxy    dyz    dz2    dxz  x2-y2    tot
    1  0.000  0.004  0.125  0.084  0.000  0.000  0.000  0.000  0.000  0.214
    2  0.000  0.004  0.125  0.084  0.000  0.000  0.000  0.000  0.000  0.214
tot    0.000  0.009  0.250  0.169  0.000  0.000  0.000  0.000  0.000  0.428
 
band     5 # energy    8.17364945 # occ.  0.00000000
 
ion      s     py     pz     px    dxy    dyz    dz2    dxz  x2-y2    tot
    1  0.000  0.050  0.050  0.050  0.000  0.000  0.000  0.000  0.000  0.151
    2  0.000  0.050  0.050  0.050  0.000  0.000  0.000  0.000  0.000  0.151
tot    0.000  0.100  0.100  0.100  0.000  0.000  0.000  0.000  0.000  0.301
 
band     6 # energy    8.17364950 # occ.  0.00000000
 
ion      s     py     pz     px    dxy    dyz    dz2    dxz  x2-y2    tot
    1  0.000  0.018  0.092  0.041  0.000  0.000  0.000  0.000  0.000  0.151
    2  0.000  0.018  0.092  0.041  0.000  0.000  0.000  0.000  0.000  0.151
tot    0.000  0.036  0.184  0.081  0.000  0.000  0.000  0.000  0.000  0.301
 
band     7 # energy    8.17364950 # occ.  0.00000000
 
ion      s     py     pz     px    dxy    dyz    dz2    dxz  x2-y2    tot
    1  0.000  0.082  0.008  0.060  0.000  0.000  0.000  0.000  0.000  0.151
    2  0.000  0.082  0.008  0.060  0.000  0.000  0.000  0.000  0.000  0.151
tot    0.000  0.165  0.017  0.120  0.000  0.000  0.000  0.000  0.000  0.301
 
band     8 # energy    8.75133829 # occ.  0.00000000
 
ion      s     py     pz     px    dxy    dyz    dz2    dxz  x2-y2    tot
    1  0.359  0.000  0.000  0.000  0.000  0.000  0.000  0.000  0.000  0.359
    2  0.359  0.000  0.000  0.000  0.000  0.000  0.000  0.000  0.000  0.359
tot    0.717  0.000  0.000  0.000  0.000  0.000  0.000  0.000  0.000  0.717
 

 k-point     2 :    0.03333333 0.00000000 0.00000000     weight = 0.00029630

band     1 # energy   -6.18423106 # occ.  2.00000000
 
ion      s     py     pz     px    dxy    dyz    dz2    dxz  x2-y2    tot
    1  0.212  0.000  0.000  0.000  0.000  0.000  0.000  0.000  0.000  0.212
    2  0.212  0.000  0.000  0.000  0.000  0.000  0.000  0.000  0.000  0.212
tot    0.424  0.000  0.000  0.000  0.000  0.000  0.000  0.000  0.000  0.424
 
band     2 # energy    5.44690045 # occ.  2.00000000
 
ion      s     py     pz     px    dxy    dyz    dz2    dxz  x2-y2    tot
    1  0.012  0.068  0.068  0.068  0.000  0.000  0.000  0.000  0.000  0.215
    2  0.012  0.068  0.068  0.068  0.000  0.000  0.000  0.000  0.000  0.215
tot    0.024  0.136  0.136  0.136  0.000  0.000  0.000  0.000  0.000  0.431
 
band     3 # energy    5.59206599 # occ.  2.00000000
 
ion      s     py     pz     px    dxy    dyz    dz2    dxz  x2-y2    tot
    1  0.000  0.036  0.036  0.142  0.000  0.000  0.000  0.000  0.000  0.213
    2  0.000  0.036  0.036  0.142  0.000  0.000  0.000  0.000  0.000  0.213
tot    0.000  0.071  0.071  0.285  0.000  0.000  0.000  0.000  0.000  0.427
 
band     4 # energy    5.59206603 # occ.  2.00000000
 
ion      s     py     pz     px    dxy    dyz    dz2    dxz  x2-y2    tot
    1  0.000  0.107  0.107  0.000  0.000  0.000  0.000  0.000  0.000  0.213
    2  0.000  0.107  0.107  0.000  0.000  0.000  0.000  0.000  0.000  0.213
tot    0.000  0.213  0.213  0.000  0.000  0.000  0.000  0.000  0.000  0.427
 
band     5 # energy    8.20720739 # occ.  0.00000000
 
ion      s     py     pz     px    dxy    dyz    dz2    dxz  x2-y2    tot
    1  0.010  0.049  0.049  0.049  0.000  0.000  0.000  0.000  0.000  0.156
    2  0.010  0.049  0.049  0.049  0.000  0.000  0.000  0.000  0.000  0.156
tot    0.020  0.097  0.097  0.097  0.000  0.000  0.000  0.000  0.000  0.312
 
band     6 # energy    8.20950488 # occ.  0.00000000
 
ion      s     py     pz     px    dxy    dyz    dz2    dxz  x2-y2    tot
    1  0.000  0.025  0.025  0.101  0.000  0.000  0.000  0.000  0.000  0.151
    2  0.000  0.025  0.025  0.101  0.000  0.000  0.000  0.000  0.000  0.151
tot    0.000  0.050  0.050  0.202  0.000  0.000  0.000  0.000  0.000  0.302
 
band     7 # energy    8.20950492 # occ.  0.00000000
 
ion      s     py     pz     px    dxy    dyz    dz2    dxz  x2-y2    tot
    1  0.000  0.076  0.076  0.000  0.000  0.000  0.000  0.000  0.000  0.151
    2  0.000  0.076  0.076  0.000  0.000  0.000  0.000  0.000  0.000  0.151
tot    0.000  0.151  0.151  0.000  0.000  0.000  0.000  0.000  0.000  0.302
 
band     8 # energy    8.86233186 # occ.  0.00000000
 
ion      s     py     pz     px    dxy    dyz    dz2    dxz  x2-y2    tot
    1  0.338  0.004  0.004  0.004  0.000  0.000  0.000  0.000  0.000  0.351
    2  0.338  0.004  0.004  0.004  0.000  0.000  0.000  0.000  0.000  0.351
tot    0.675  0.009  0.009  0.009  0.000  0.000  0.000  0.000  0.000  0.702
 

 k-point     3 :    0.06666667 0.00000000 0.00000000     weight = 0.00029630

band     1 # energy   -6.14130282 # occ.  2.00000000
 
ion      s     py     pz     px    dxy    dyz    dz2    dxz  x2-y2    tot
    1  0.212  0.000  0.000  0.000  0.000  0.000  0.000  0.000  0.000  0.212
    2  0.212  0.000  0.000  0.000  0.000  0.000  0.000  0.000  0.000  0.212
tot    0.423  0.000  0.000  0.000  0.000  0.000  0.000  0.000  0.000  0.425
 
band     2 # energy    5.02359250 # occ.  2.00000000
 
ion      s     py     pz     px    dxy    dyz    dz2    dxz  x2-y2    tot
    1  0.034  0.061  0.061  0.061  0.000  0.000  0.000  0.000  0.000  0.218
    2  0.034  0.061  0.061  0.061  0.000  0.000  0.000  0.000  0.000  0.218
tot    0.068  0.123  0.123  0.123  0.000  0.000  0.000  0.000  0.000  0.436
 
band     3 # energy    5.52351767 # occ.  2.00000000
 
ion      s     py     pz     px    dxy    dyz    dz2    dxz  x2-y2    tot
    1  0.000  0.035  0.035  0.142  0.000  0.000  0.000  0.000  0.000  0.213
    2  0.000  0.035  0.035  0.142  0.000  0.000  0.000  0.000  0.000  0.213
tot    0.000  0.071  0.071  0.283  0.000  0.000  0.000  0.000  0.000  0.425
 
band     4 # energy    5.52351771 # occ.  2.00000000
 
ion      s     py     pz     px    dxy    dyz    dz2    dxz  x2-y2    tot
    1  0.000  0.106  0.106  0.000  0.000  0.000  0.000  0.000  0.000  0.213
    2  0.000  0.106  0.106  0.000  0.000  0.000  0.000  0.000  0.000  0.213
tot    0.000  0.213  0.213  0.000  0.000  0.000  0.000  0.000  0.000  0.425
 
band     5 # energy    8.20905197 # occ.  0.00000000
 
ion      s     py     pz     px    dxy    dyz    dz2    dxz  x2-y2    tot
    1  0.055  0.041  0.041  0.041  0.000  0.000  0.000  0.000  0.000  0.177
    2  0.055  0.041  0.041  0.041  0.000  0.000  0.000  0.000  0.000  0.177
tot    0.110  0.082  0.082  0.082  0.000  0.000  0.000  0.000  0.000  0.354
 
band     6 # energy    8.31046757 # occ.  0.00000000
 
ion      s     py     pz     px    dxy    dyz    dz2    dxz  x2-y2    tot
    1  0.000  0.025  0.025  0.102  0.000  0.000  0.000  0.000  0.000  0.152
    2  0.000  0.025  0.025  0.102  0.000  0.000  0.000  0.000  0.000  0.152
tot    0.000  0.051  0.051  0.203  0.000  0.000  0.000  0.000  0.000  0.305
 
band     7 # energy    8.31046761 # occ.  0.00000000
 
ion      s     py     pz     px    dxy    dyz    dz2    dxz  x2-y2    tot
    1  0.000  0.076  0.076  0.000  0.000  0.000  0.000  0.000  0.000  0.152
    2  0.000  0.076  0.076  0.000  0.000  0.000  0.000  0.000  0.000  0.152
tot    0.000  0.152  0.152  0.000  0.000  0.000  0.000  0.000  0.000  0.305
 
band     8 # energy    9.21208482 # occ.  0.00000000
 
ion      s     py     pz     px    dxy    dyz    dz2    dxz  x2-y2    tot
    1  0.274  0.017  0.017  0.017  0.000  0.000  0.000  0.000  0.000  0.325
    2  0.274  0.017  0.017  0.017  0.000  0.000  0.000  0.000  0.000  0.325
tot    0.549  0.034  0.034  0.034  0.000  0.000  0.000  0.000  0.000  0.650
 

 k-point     4 :    0.10000000 0.00000000 0.00000000     weight = 0.00029630

band     1 # energy   -6.06996954 # occ.  2.00000000
 
ion      s     py     pz     px    dxy    dyz    dz2    dxz  x2-y2    tot
    1  0.211  0.000  0.000  0.000  0.000  0.000  0.000  0.000  0.000  0.213
    2  0.211  0.000  0.000  0.000  0.000  0.000  0.000  0.000  0.000  0.213
tot    0.423  0.001  0.001  0.001  0.000  0.000  0.000  0.000  0.000  0.425
 
band     2 # energy    4.47455787 # occ.  2.00000000
 
ion      s     py     pz     px    dxy    dyz    dz2    dxz  x2-y2    tot
    1  0.053  0.055  0.055  0.055  0.000  0.000  0.000  0.000  0.000  0.219
    2  0.053  0.055  0.055  0.055  0.000  0.000  0.000  0.000  0.000  0.219
tot    0.106  0.111  0.111  0.111  0.000  0.000  0.000  0.000  0.000  0.438
 
band     3 # energy    5.42277972 # occ.  2.00000000
 
ion      s     py     pz     px    dxy    dyz    dz2    dxz  x2-y2    tot
    1  0.000  0.035  0.035  0.141  0.000  0.000  0.000  0.000  0.000  0.212
    2  0.000  0.035  0.035  0.141  0.000  0.000  0.000  0.000  0.000  0.212
tot    0.000  0.071  0.071  0.282  0.000  0.000  0.000  0.000  0.000  0.423
 
band     4 # energy    5.42277976 # occ.  2.00000000
 
ion      s     py     pz     px    dxy    dyz    dz2    dxz  x2-y2    tot
    1  0.000  0.106  0.106  0.000  0.000  0.000  0.000  0.000  0.000  0.212
    2  0.000  0.106  0.106  0.000  0.000  0.000  0.000  0.000  0.000  0.212
tot    0.000  0.212  0.212  0.000  0.000  0.000  0.000  0.000  0.000  0.423
 
band     5 # energy    8.13969550 # occ.  0.00000000
 
ion      s     py     pz     px    dxy    dyz    dz2    dxz  x2-y2    tot
    1  0.092  0.034  0.034  0.034  0.000  0.000  0.000  0.000  0.000  0.192
    2  0.092  0.034  0.034  0.034  0.000  0.000  0.000  0.000  0.000  0.192
tot    0.183  0.067  0.067  0.067  0.000  0.000  0.000  0.000  0.000  0.385
 
band     6 # energy    8.45940239 # occ.  0.00000000
 
ion      s     py     pz     px    dxy    dyz    dz2    dxz  x2-y2    tot
    1  0.000  0.026  0.026  0.102  0.000  0.000  0.000  0.000  0.000  0.154
    2  0.000  0.026  0.026  0.102  0.000  0.000  0.000  0.000  0.000  0.154
tot    0.000  0.051  0.051  0.205  0.000  0.000  0.000  0.000  0.000  0.307
 
band     7 # energy    8.45940243 # occ.  0.00000000
 
ion      s     py     pz     px    dxy    dyz    dz2    dxz  x2-y2    tot
    1  0.000  0.077  0.077  0.000  0.000  0.000  0.000  0.000  0.000  0.154
    2  0.000  0.077  0.077  0.000  0.000  0.000  0.000  0.000  0.000  0.154
tot    0.000  0.154  0.154  0.000  0.000  0.000  0.000  0.000  0.000  0.307
 
band     8 # energy    9.72125874 # occ.  0.00000000
 
ion      s     py     pz     px    dxy    dyz    dz2    dxz  x2-y2    tot
    1  0.223  0.027  0.027  0.027  0.000  0.000  0.000  0.000  0.000  0.305
    2  0.223  0.027  0.027  0.027  0.000  0.000  0.000  0.000  0.000  0.305
tot    0.445  0.055  0.055  0.055  0.000  0.000  0.000  0.000  0.000  0.609
 

 k-point     5 :    0.13333333 0.00000000 0.00000000     weight = 0.00029630

band     1 # energy   -5.97064940 # occ.  2.00000000
 
ion      s     py     pz     px    dxy    dyz    dz2    dxz  x2-y2    tot
    1  0.211  0.001  0.001  0.001  0.000  0.000  0.000  0.000  0.000  0.213
    2  0.211  0.001  0.001  0.001  0.000  0.000  0.000  0.000  0.000  0.213
tot    0.422  0.002  0.002  0.002  0.000  0.000  0.000  0.000  0.000  0.427
 
band     2 # energy    3.87282299 # occ.  2.00000000
 
ion      s     py     pz     px    dxy    dyz    dz2    dxz  x2-y2    tot
    1  0.067  0.051  0.051  0.051  0.000  0.000  0.000  0.000  0.000  0.219
    2  0.067  0.051  0.051  0.051  0.000  0.000  0.000  0.000  0.000  0.219
tot    0.135  0.101  0.101  0.101  0.000  0.000  0.000  0.000  0.000  0.438
 
band     3 # energy    5.30315160 # occ.  2.00000000
 
ion      s     py     pz     px    dxy    dyz    dz2    dxz  x2-y2    tot
    1  0.000  0.035  0.035  0.141  0.000  0.000  0.000  0.000  0.000  0.211
    2  0.000  0.035  0.035  0.141  0.000  0.000  0.000  0.000  0.000  0.211
tot    0.000  0.070  0.070  0.281  0.000  0.000  0.000  0.000  0.000  0.422
 
band     4 # energy    5.30315165 # occ.  2.00000000
 
ion      s     py     pz     px    dxy    dyz    dz2    dxz  x2-y2    tot
    1  0.000  0.105  0.105  0.000  0.000  0.000  0.000  0.000  0.000  0.211
    2  0.000  0.105  0.105  0.000  0.000  0.000  0.000  0.000  0.000  0.211
tot    0.000  0.211  0.211  0.000  0.000  0.000  0.000  0.000  0.000  0.422
 
band     5 # energy    8.03043014 # occ.  0.00000000
 
ion      s     py     pz     px    dxy    dyz    dz2    dxz  x2-y2    tot
    1  0.114  0.028  0.028  0.028  0.000  0.000  0.000  0.000  0.000  0.199
    2  0.114  0.028  0.028  0.028  0.000  0.000  0.000  0.000  0.000  0.199
tot    0.229  0.057  0.057  0.057  0.000  0.000  0.000  0.000  0.000  0.398
 
band     6 # energy    8.63376061 # occ.  0.00000000
 
ion      s     py     pz     px    dxy    dyz    dz2    dxz  x2-y2    tot
    1  0.000  0.026  0.026  0.103  0.000  0.000  0.000  0.000  0.000  0.154
    2  0.000  0.026  0.026  0.103  0.000  0.000  0.000  0.000  0.000  0.154
tot    0.000  0.051  0.051  0.206  0.000  0.000  0.000  0.000  0.000  0.308
 
band     7 # energy    8.63376065 # occ.  0.00000000
 
ion      s     py     pz     px    dxy    dyz    dz2    dxz  x2-y2    tot
    1  0.000  0.077  0.077  0.000  0.000  0.000  0.000  0.000  0.000  0.154
    2  0.000  0.077  0.077  0.000  0.000  0.000  0.000  0.000  0.000  0.154
tot    0.000  0.154  0.154  0.000  0.000  0.000  0.000  0.000  0.000  0.308
 
band     8 # energy   10.29733957 # occ.  0.00000000
 
ion      s     py     pz     px    dxy    dyz    dz2    dxz  x2-y2    tot
    1  0.189  0.035  0.035  0.035  0.000  0.000  0.000  0.000  0.000  0.293
    2  0.189  0.035  0.035  0.035  0.000  0.000  0.000  0.000  0.000  0.293
tot    0.378  0.069  0.069  0.069  0.000  0.000  0.000  0.000  0.000  0.585
 

 k-point     6 :    0.16666667 0.00000000 0.00000000     weight = 0.00029630

band     1 # energy   -5.84387748 # occ.  2.00000000
 
ion      s     py     pz     px    dxy    dyz    dz2    dxz  x2-y2    tot
    1  0.210  0.001  0.001  0.001  0.000  0.000  0.000  0.000  0.000  0.214
    2  0.210  0.001  0.001  0.001  0.000  0.000  0.000  0.000  0.000  0.214
tot    0.421  0.002  0.002  0.002  0.000  0.000  0.000  0.000  0.000  0.428
 
band     2 # energy    3.25347966 # occ.  2.00000000
 
ion      s     py     pz     px    dxy    dyz    dz2    dxz  x2-y2    tot
    1  0.079  0.047  0.047  0.047  0.000  0.000  0.000  0.000  0.000  0.218
    2  0.079  0.047  0.047  0.047  0.000  0.000  0.000  0.000  0.000  0.218
tot    0.157  0.093  0.093  0.093  0.000  0.000  0.000  0.000  0.000  0.437
 
band     3 # energy    5.17583148 # occ.  2.00000000
 
ion      s     py     pz     px    dxy    dyz    dz2    dxz  x2-y2    tot
    1  0.000  0.035  0.035  0.140  0.000  0.000  0.000  0.000  0.000  0.211
    2  0.000  0.035  0.035  0.140  0.000  0.000  0.000  0.000  0.000  0.211
tot    0.000  0.070  0.070  0.281  0.000  0.000  0.000  0.000  0.000  0.421
 
band     4 # energy    5.17583152 # occ.  2.00000000
 
ion      s     py     pz     px    dxy    dyz    dz2    dxz  x2-y2    tot
    1  0.000  0.105  0.105  0.000  0.000  0.000  0.000  0.000  0.000  0.211
    2  0.000  0.105  0.105  0.000  0.000  0.000  0.000  0.000  0.000  0.211
tot    0.000  0.211  0.211  0.000  0.000  0.000  0.000  0.000  0.000  0.421
 
band     5 # energy    7.90277707 # occ.  0.00000000
 
ion      s     py     pz     px    dxy    dyz    dz2    dxz  x2-y2    tot
    1  0.130  0.024  0.024  0.024  0.000  0.000  0.000  0.000  0.000  0.202
    2  0.130  0.024  0.024  0.024  0.000  0.000  0.000  0.000  0.000  0.202
tot    0.260  0.048  0.048  0.048  0.000  0.000  0.000  0.000  0.000  0.405
 
band     6 # energy    8.80904602 # occ.  0.00000000
 
ion      s     py     pz     px    dxy    dyz    dz2    dxz  x2-y2    tot
    1  0.000  0.026  0.026  0.102  0.000  0.000  0.000  0.000  0.000  0.153
    2  0.000  0.026  0.026  0.102  0.000  0.000  0.000  0.000  0.000  0.153
tot    0.000  0.051  0.051  0.204  0.000  0.000  0.000  0.000  0.000  0.306
 
band     7 # energy    8.80904605 # occ.  0.00000000
 
ion      s     py     pz     px    dxy    dyz    dz2    dxz  x2-y2    tot
    1  0.000  0.077  0.077  0.000  0.000  0.000  0.000  0.000  0.000  0.153
    2  0.000  0.077  0.077  0.000  0.000  0.000  0.000  0.000  0.000  0.153
tot    0.000  0.153  0.153  0.000  0.000  0.000  0.000  0.000  0.000  0.306
 
band     8 # energy   10.89576808 # occ.  0.00000000
 
ion      s     py     pz     px    dxy    dyz    dz2    dxz  x2-y2    tot
    1  0.165  0.040  0.040  0.040  0.000  0.000  0.000  0.000  0.000  0.284
    2  0.165  0.040  0.040  0.040  0.000  0.000  0.000  0.000  0.000  0.284
tot    0.330  0.080  0.080  0.080  0.000  0.000  0.000  0.000  0.000  0.568
 

 k-point     7 :    0.20000000 0.00000000 0.00000000     weight = 0.00029630

band     1 # energy   -5.69052372 # occ.  2.00000000
 
ion      s     py     pz     px    dxy    dyz    dz2    dxz  x2-y2    tot
    1  0.210  0.002  0.002  0.002  0.000  0.000  0.000  0.000  0.000  0.215
    2  0.210  0.002  0.002  0.002  0.000  0.000  0.000  0.000  0.000  0.215
tot    0.420  0.003  0.003  0.003  0.000  0.000  0.000  0.000  0.000  0.430
 
band     2 # energy    2.63466559 # occ.  2.00000000
 
ion      s     py     pz     px    dxy    dyz    dz2    dxz  x2-y2    tot
    1  0.087  0.043  0.043  0.043  0.000  0.000  0.000  0.000  0.000  0.217
    2  0.087  0.043  0.043  0.043  0.000  0.000  0.000  0.000  0.000  0.217
tot    0.175  0.086  0.086  0.086  0.000  0.000  0.000  0.000  0.000  0.434
 
band     3 # energy    5.04902466 # occ.  2.00000000
 
ion      s     py     pz     px    dxy    dyz    dz2    dxz  x2-y2    tot
    1  0.000  0.035  0.035  0.140  0.000  0.000  0.000  0.000  0.000  0.211
    2  0.000  0.035  0.035  0.140  0.000  0.000  0.000  0.000  0.000  0.211
tot    0.000  0.070  0.070  0.281  0.000  0.000  0.000  0.000  0.000  0.421
 
band     4 # energy    5.04902470 # occ.  2.00000000
 
ion      s     py     pz     px    dxy    dyz    dz2    dxz  x2-y2    tot
    1  0.000  0.105  0.105  0.000  0.000  0.000  0.000  0.000  0.000  0.211
    2  0.000  0.105  0.105  0.000  0.000  0.000  0.000  0.000  0.000  0.211
tot    0.000  0.211  0.211  0.000  0.000  0.000  0.000  0.000  0.000  0.421
 
band     5 # energy    7.76952424 # occ.  0.00000000
 
ion      s     py     pz     px    dxy    dyz    dz2    dxz  x2-y2    tot
    1  0.142  0.021  0.021  0.021  0.000  0.000  0.000  0.000  0.000  0.204
    2  0.142  0.021  0.021  0.021  0.000  0.000  0.000  0.000  0.000  0.204
tot    0.284  0.041  0.041  0.041  0.000  0.000  0.000  0.000  0.000  0.407
 
band     6 # energy    8.96127109 # occ.  0.00000000
 
ion      s     py     pz     px    dxy    dyz    dz2    dxz  x2-y2    tot
    1  0.000  0.025  0.025  0.100  0.000  0.000  0.000  0.000  0.000  0.150
    2  0.000  0.025  0.025  0.100  0.000  0.000  0.000  0.000  0.000  0.150
tot    0.000  0.050  0.050  0.199  0.000  0.000  0.000  0.000  0.000  0.299
 
band     7 # energy    8.96127112 # occ.  0.00000000
 
ion      s     py     pz     px    dxy    dyz    dz2    dxz  x2-y2    tot
    1  0.000  0.075  0.075  0.000  0.000  0.000  0.000  0.000  0.000  0.150
    2  0.000  0.075  0.075  0.000  0.000  0.000  0.000  0.000  0.000  0.150
tot    0.000  0.150  0.150  0.000  0.000  0.000  0.000  0.000  0.000  0.299
 
band     8 # energy   11.49580468 # occ.  0.00000000
 
ion      s     py     pz     px    dxy    dyz    dz2    dxz  x2-y2    tot
    1  0.144  0.044  0.044  0.044  0.000  0.000  0.000  0.000  0.000  0.277
    2  0.144  0.044  0.044  0.044  0.000  0.000  0.000  0.000  0.000  0.277
tot    0.288  0.088  0.088  0.088  0.000  0.000  0.000  0.000  0.000  0.553
 

 k-point     8 :    0.23333333 0.00000000 0.00000000     weight = 0.00029630

band     1 # energy   -5.51188937 # occ.  2.00000000
 
ion      s     py     pz     px    dxy    dyz    dz2    dxz  x2-y2    tot
    1  0.209  0.002  0.002  0.002  0.000  0.000  0.000  0.000  0.000  0.216
    2  0.209  0.002  0.002  0.002  0.000  0.000  0.000  0.000  0.000  0.216
tot    0.419  0.005  0.005  0.005  0.000  0.000  0.000  0.000  0.000  0.433
 
band     2 # energy    2.02725140 # occ.  2.00000000
 
ion      s     py     pz     px    dxy    dyz    dz2    dxz  x2-y2    tot
    1  0.094  0.040  0.040  0.040  0.000  0.000  0.000  0.000  0.000  0.215
    2  0.094  0.040  0.040  0.040  0.000  0.000  0.000  0.000  0.000  0.215
tot    0.188  0.081  0.081  0.081  0.000  0.000  0.000  0.000  0.000  0.430
 
band     3 # energy    4.92834818 # occ.  2.00000000
 
ion      s     py     pz     px    dxy    dyz    dz2    dxz  x2-y2    tot
    1  0.000  0.035  0.035  0.141  0.000  0.000  0.000  0.000  0.000  0.211
    2  0.000  0.035  0.035  0.141  0.000  0.000  0.000  0.000  0.000  0.211
tot    0.000  0.070  0.070  0.281  0.000  0.000  0.000  0.000  0.000  0.422
 
band     4 # energy    4.92834822 # occ.  2.00000000
 
ion      s     py     pz     px    dxy    dyz    dz2    dxz  x2-y2    tot
    1  0.000  0.106  0.106  0.000  0.000  0.000  0.000  0.000  0.000  0.211
    2  0.000  0.106  0.106  0.000  0.000  0.000  0.000  0.000  0.000  0.211
tot    0.000  0.211  0.211  0.000  0.000  0.000  0.000  0.000  0.000  0.422
 
band     5 # energy    7.63892466 # occ.  0.00000000
 
ion      s     py     pz     px    dxy    dyz    dz2    dxz  x2-y2    tot
    1  0.152  0.018  0.018  0.018  0.000  0.000  0.000  0.000  0.000  0.204
    2  0.152  0.018  0.018  0.018  0.000  0.000  0.000  0.000  0.000  0.204
tot    0.303  0.035  0.035  0.035  0.000  0.000  0.000  0.000  0.000  0.409
 
band     6 # energy    9.07116309 # occ.  0.00000000
 
ion      s     py     pz     px    dxy    dyz    dz2    dxz  x2-y2    tot
    1  0.000  0.024  0.024  0.095  0.000  0.000  0.000  0.000  0.000  0.143
    2  0.000  0.024  0.024  0.095  0.000  0.000  0.000  0.000  0.000  0.143
tot    0.000  0.048  0.048  0.191  0.000  0.000  0.000  0.000  0.000  0.286
 
band     7 # energy    9.07116312 # occ.  0.00000000
 
ion      s     py     pz     px    dxy    dyz    dz2    dxz  x2-y2    tot
    1  0.000  0.071  0.071  0.000  0.000  0.000  0.000  0.000  0.000  0.143
    2  0.000  0.071  0.071  0.000  0.000  0.000  0.000  0.000  0.000  0.143
tot    0.000  0.143  0.143  0.000  0.000  0.000  0.000  0.000  0.000  0.286
 
band     8 # energy   12.08405115 # occ.  0.00000000
 
ion      s     py     pz     px    dxy    dyz    dz2    dxz  x2-y2    tot
    1  0.123  0.048  0.048  0.048  0.000  0.000  0.000  0.000  0.000  0.268
    2  0.123  0.048  0.048  0.048  0.000  0.000  0.000  0.000  0.000  0.268
tot    0.246  0.097  0.097  0.097  0.000  0.000  0.000  0.000  0.000  0.536
 

 k-point     9 :    0.26666667 0.00000000 0.00000000     weight = 0.00029630

band     1 # energy   -5.30980850 # occ.  2.00000000
 
ion      s     py     pz     px    dxy    dyz    dz2    dxz  x2-y2    tot
    1  0.209  0.003  0.003  0.003  0.000  0.000  0.000  0.000  0.000  0.218
    2  0.209  0.003  0.003  0.003  0.000  0.000  0.000  0.000  0.000  0.218
tot    0.418  0.006  0.006  0.006  0.000  0.000  0.000  0.000  0.000  0.436
 
band     2 # energy    1.43898454 # occ.  2.00000000
 
ion      s     py     pz     px    dxy    dyz    dz2    dxz  x2-y2    tot
    1  0.100  0.038  0.038  0.038  0.000  0.000  0.000  0.000  0.000  0.213
    2  0.100  0.038  0.038  0.038  0.000  0.000  0.000  0.000  0.000  0.213
tot    0.199  0.076  0.076  0.076  0.000  0.000  0.000  0.000  0.000  0.426
 
band     3 # energy    4.81750807 # occ.  2.00000000
 
ion      s     py     pz     px    dxy    dyz    dz2    dxz  x2-y2    tot
    1  0.000  0.035  0.035  0.141  0.000  0.000  0.000  0.000  0.000  0.212
    2  0.000  0.035  0.035  0.141  0.000  0.000  0.000  0.000  0.000  0.212
tot    0.000  0.071  0.071  0.282  0.000  0.000  0.000  0.000  0.000  0.423
 
band     4 # energy    4.81750811 # occ.  2.00000000
 
ion      s     py     pz     px    dxy    dyz    dz2    dxz  x2-y2    tot
    1  0.000  0.106  0.106  0.000  0.000  0.000  0.000  0.000  0.000  0.212
    2  0.000  0.106  0.106  0.000  0.000  0.000  0.000  0.000  0.000  0.212
tot    0.000  0.212  0.212  0.000  0.000  0.000  0.000  0.000  0.000  0.423
 
band     5 # energy    7.51648152 # occ.  0.00000000
 
ion      s     py     pz     px    dxy    dyz    dz2    dxz  x2-y2    tot
    1  0.160  0.015  0.015  0.015  0.000  0.000  0.000  0.000  0.000  0.205
    2  0.160  0.015  0.015  0.015  0.000  0.000  0.000  0.000  0.000  0.205
tot    0.320  0.030  0.030  0.030  0.000  0.000  0.000  0.000  0.000  0.409
 
band     6 # energy    9.12992938 # occ.  0.00000000
 
ion      s     py     pz     px    dxy    dyz    dz2    dxz  x2-y2    tot
    1  0.000  0.022  0.022  0.089  0.000  0.000  0.000  0.000  0.000  0.134
    2  0.000  0.022  0.022  0.089  0.000  0.000  0.000  0.000  0.000  0.134
tot    0.000  0.045  0.045  0.179  0.000  0.000  0.000  0.000  0.000  0.268
 
band     7 # energy    9.12992941 # occ.  0.00000000
 
ion      s     py     pz     px    dxy    dyz    dz2    dxz  x2-y2    tot
    1  0.000  0.067  0.067  0.000  0.000  0.000  0.000  0.000  0.000  0.134
    2  0.000  0.067  0.067  0.000  0.000  0.000  0.000  0.000  0.000  0.134
tot    0.000  0.134  0.134  0.000  0.000  0.000  0.000  0.000  0.000  0.268
 
band     8 # energy   12.64142748 # occ.  0.00000000
 
ion      s     py     pz     px    dxy    dyz    dz2    dxz  x2-y2    tot
    1  0.097  0.052  0.052  0.052  0.000  0.000  0.000  0.000  0.000  0.254
    2  0.097  0.052  0.052  0.052  0.000  0.000  0.000  0.000  0.000  0.254
tot    0.195  0.104  0.104  0.104  0.000  0.000  0.000  0.000  0.000  0.507
 

 k-point    10 :    0.30000000 0.00000000 0.00000000     weight = 0.00029630

band     1 # energy   -5.08713518 # occ.  2.00000000
 
ion      s     py     pz     px    dxy    dyz    dz2    dxz  x2-y2    tot
    1  0.209  0.004  0.004  0.004  0.000  0.000  0.000  0.000  0.000  0.220
    2  0.209  0.004  0.004  0.004  0.000  0.000  0.000  0.000  0.000  0.220
tot    0.418  0.007  0.007  0.007  0.000  0.000  0.000  0.000  0.000  0.440
 
band     2 # energy    0.87655666 # occ.  2.00000000
 
ion      s     py     pz     px    dxy    dyz    dz2    dxz  x2-y2    tot
    1  0.104  0.036  0.036  0.036  0.000  0.000  0.000  0.000  0.000  0.211
    2  0.104  0.036  0.036  0.036  0.000  0.000  0.000  0.000  0.000  0.211
tot    0.207  0.071  0.071  0.071  0.000  0.000  0.000  0.000  0.000  0.421
 
band     3 # energy    4.71892211 # occ.  2.00000000
 
ion      s     py     pz     px    dxy    dyz    dz2    dxz  x2-y2    tot
    1  0.000  0.035  0.035  0.142  0.000  0.000  0.000  0.000  0.000  0.212
    2  0.000  0.035  0.035  0.142  0.000  0.000  0.000  0.000  0.000  0.212
tot    0.000  0.071  0.071  0.283  0.000  0.000  0.000  0.000  0.000  0.425
 
band     4 # energy    4.71892215 # occ.  2.00000000
 
ion      s     py     pz     px    dxy    dyz    dz2    dxz  x2-y2    tot
    1  0.000  0.106  0.106  0.000  0.000  0.000  0.000  0.000  0.000  0.212
    2  0.000  0.106  0.106  0.000  0.000  0.000  0.000  0.000  0.000  0.212
tot    0.000  0.212  0.212  0.000  0.000  0.000  0.000  0.000  0.000  0.425
 
band     5 # energy    7.40589450 # occ.  0.00000000
 
ion      s     py     pz     px    dxy    dyz    dz2    dxz  x2-y2    tot
    1  0.167  0.013  0.013  0.013  0.000  0.000  0.000  0.000  0.000  0.205
    2  0.167  0.013  0.013  0.013  0.000  0.000  0.000  0.000  0.000  0.205
tot    0.333  0.026  0.026  0.026  0.000  0.000  0.000  0.000  0.000  0.410
 
band     6 # energy    9.14182291 # occ.  0.00000000
 
ion      s     py     pz     px    dxy    dyz    dz2    dxz  x2-y2    tot
    1  0.000  0.021  0.021  0.083  0.000  0.000  0.000  0.000  0.000  0.124
    2  0.000  0.021  0.021  0.083  0.000  0.000  0.000  0.000  0.000  0.124
tot    0.000  0.041  0.041  0.166  0.000  0.000  0.000  0.000  0.000  0.249
 
band     7 # energy    9.14182294 # occ.  0.00000000
 
ion      s     py     pz     px    dxy    dyz    dz2    dxz  x2-y2    tot
    1  0.000  0.062  0.062  0.000  0.000  0.000  0.000  0.000  0.000  0.124
    2  0.000  0.062  0.062  0.000  0.000  0.000  0.000  0.000  0.000  0.124
tot    0.000  0.124  0.124  0.000  0.000  0.000  0.000  0.000  0.000  0.249
 
band     8 # energy   13.11771916 # occ.  0.00000000
 
ion      s     py     pz     px    dxy    dyz    dz2    dxz  x2-y2    tot
    1  0.061  0.053  0.053  0.053  0.000  0.000  0.000  0.000  0.000  0.221
    2  0.061  0.053  0.053  0.053  0.000  0.000  0.000  0.000  0.000  0.221
tot    0.122  0.106  0.106  0.106  0.000  0.000  0.000  0.000  0.000  0.442
 

 k-point    11 :    0.33333333 0.00000000 0.00000000     weight = 0.00029630

band     1 # energy   -4.84841210 # occ.  2.00000000
 
ion      s     py     pz     px    dxy    dyz    dz2    dxz  x2-y2    tot
    1  0.210  0.004  0.004  0.004  0.000  0.000  0.000  0.000  0.000  0.222
    2  0.210  0.004  0.004  0.004  0.000  0.000  0.000  0.000  0.000  0.222