<?xml version="1.0" encoding="ISO-8859-1"?>
<modeling>
 <generator>
  <i name="program" type="string">vasp </i>
  <i name="version" type="string">6.4.2  </i>
  <i name="subversion" type="string">20Jul23 (build Oct 16 2024 22:45:58) complex                          parallel </i>
  <i name="platform" type="string">LinuxIFC </i>
  <i name="date" type="string">2025 01 29 </i>
  <i name="time" type="string">09:10:37 </i>
 </generator>
 <incar>
  <i type="string" name="SYSTEM">Si FCC</i>
  <i type="string" name="PREC">Accurate</i>
  <i type="int" name="IBRION">    -1</i>
  <i name="EDIFF">      0.00000000</i>
  <i name="EDIFFG">     -0.00001000</i>
  <i type="int" name="NSW">     0</i>
  <i type="int" name="ISIF">     0</i>
  <i name="ENCUT">    520.00000000</i>
  <i type="int" name="ISMEAR">     0</i>
  <i name="SIGMA">      0.03000000</i>
  <i type="logical" name="LWAVE"> F  </i>
  <i type="logical" name="LCHARG"> F  </i>
  <i type="int" name="LORBIT">    11</i>
  <i type="string" name="GGA">PE</i>
 </incar>
 <primitive_cell>
  <structure name="primitive_cell" >
   <crystal>
    <varray name="basis" >
     <v>       0.00000000       2.73429199       2.73429199 </v>
     <v>       2.73429199       0.00000000       2.73429199 </v>
     <v>       2.73429199       2.73429199       0.00000000 </v>
    </varray>
    <i name="volume">     40.88506259 </i>
    <varray name="rec_basis" >
     <v>      -0.18286269       0.18286269       0.18286269 </v>
     <v>       0.18286269      -0.18286269       0.18286269 </v>
     <v>       0.18286269       0.18286269      -0.18286269 </v>
    </varray>
   </crystal>
   <varray name="positions" >
    <v>       0.00000000       0.00000000       0.00000000 </v>
    <v>       0.25000000       0.25000000       0.25000000 </v>
   </varray>
  </structure>
  <varray name="primitive_index" >
   <v type="int" >        1 </v>
   <v type="int" >        2 </v>
  </varray>
 </primitive_cell>
 <kpoints>
  <generation param="Gamma">
   <v type="int" name="divisions">      30       30       30 </v>
   <v name="usershift">      0.00000000       0.00000000       0.00000000 </v>
   <v name="genvec1">      0.03333333       0.00000000       0.00000000 </v>
   <v name="genvec2">      0.00000000       0.03333333       0.00000000 </v>
   <v name="genvec3">      0.00000000       0.00000000       0.03333333 </v>
   <v name="shift">      0.00000000       0.00000000       0.00000000 </v>
  </generation>
  <varray name="kpointlist" >
   <v>       0.00000000       0.00000000       0.00000000 </v>
   <v>       0.03333333       0.00000000       0.00000000 </v>
   <v>       0.06666667       0.00000000       0.00000000 </v>
   <v>       0.10000000       0.00000000       0.00000000 </v>
   <v>       0.13333333       0.00000000       0.00000000 </v>
   <v>       0.16666667       0.00000000       0.00000000 </v>
   <v>       0.20000000       0.00000000       0.00000000 </v>
   <v>       0.23333333       0.00000000       0.00000000 </v>
   <v>       0.26666667       0.00000000       0.00000000 </v>
   <v>       0.30000000       0.00000000       0.00000000 </v>
   <v>       0.33333333       0.00000000       0.00000000 </v>
   <v>       0.36666667       0.00000000       0.00000000 </v>
   <v>       0.40000000       0.00000000       0.00000000 </v>
   <v>       0.43333333       0.00000000       0.00000000 </v>
   <v>       0.46666667       0.00000000       0.00000000 </v>
   <v>       0.50000000       0.00000000       0.00000000 </v>
   <v>       0.03333333       0.03333333       0.00000000 </v>
   <v>       0.06666667       0.03333333       0.00000000 </v>
   <v>       0.10000000       0.03333333       0.00000000 </v>
   <v>       0.13333333       0.03333333       0.00000000 </v>
   <v>       0.16666667       0.03333333       0.00000000 </v>
   <v>       0.20000000       0.03333333       0.00000000 </v>
   <v>       0.23333333       0.03333333       0.00000000 </v>
   <v>       0.26666667       0.03333333       0.00000000 </v>
   <v>       0.30000000       0.03333333       0.00000000 </v>
   <v>       0.33333333       0.03333333       0.00000000 </v>
   <v>       0.36666667       0.03333333       0.00000000 </v>
   <v>       0.40000000       0.03333333       0.00000000 </v>
   <v>       0.43333333       0.03333333       0.00000000 </v>
   <v>       0.46666667       0.03333333       0.00000000 </v>
   <v>       0.50000000       0.03333333       0.00000000 </v>
   <v>      -0.46666667       0.03333333       0.00000000 </v>
   <v>      -0.43333333       0.03333333       0.00000000 </v>
   <v>      -0.40000000       0.03333333       0.00000000 </v>
   <v>      -0.36666667       0.03333333       0.00000000 </v>
   <v>      -0.33333333       0.03333333       0.00000000 </v>
   <v>      -0.30000000       0.03333333       0.00000000 </v>
   <v>      -0.26666667       0.03333333       0.00000000 </v>
   <v>      -0.23333333       0.03333333       0.00000000 </v>
   <v>      -0.20000000       0.03333333       0.00000000 </v>
   <v>      -0.16666667       0.03333333       0.00000000 </v>
   <v>      -0.13333333       0.03333333       0.00000000 </v>
   <v>      -0.10000000       0.03333333       0.00000000 </v>
   <v>      -0.06666667       0.03333333       0.00000000 </v>
   <v>      -0.03333333       0.03333333       0.00000000 </v>
   <v>       0.06666667       0.06666667       0.00000000 </v>
   <v>       0.10000000       0.06666667       0.00000000 </v>
   <v>       0.13333333       0.06666667       0.00000000 </v>
   <v>       0.16666667       0.06666667       0.00000000 </v>
   <v>       0.20000000       0.06666667       0.00000000 </v>
   <v>       0.23333333       0.06666667       0.00000000 </v>
   <v>       0.26666667       0.06666667       0.00000000 </v>
   <v>       0.30000000       0.06666667       0.00000000 </v>
   <v>       0.33333333       0.06666667       0.00000000 </v>
   <v>       0.36666667       0.06666667       0.00000000 </v>
   <v>       0.40000000       0.06666667       0.00000000 </v>
   <v>       0.43333333       0.06666667       0.00000000 </v>
   <v>       0.46666667       0.06666667       0.00000000 </v>
   <v>       0.50000000       0.06666667       0.00000000 </v>
   <v>      -0.46666667       0.06666667       0.00000000 </v>
   <v>      -0.43333333       0.06666667       0.00000000 </v>
   <v>      -0.40000000       0.06666667       0.00000000 </v>
   <v>      -0.36666667       0.06666667       0.00000000 </v>
   <v>      -0.33333333       0.06666667       0.00000000 </v>
   <v>      -0.30000000       0.06666667       0.00000000 </v>
   <v>      -0.26666667       0.06666667       0.00000000 </v>
   <v>      -0.23333333       0.06666667       0.00000000 </v>
   <v>      -0.20000000       0.06666667       0.00000000 </v>
   <v>      -0.16666667       0.06666667       0.00000000 </v>
   <v>      -0.13333333       0.06666667       0.00000000 </v>
   <v>      -0.10000000       0.06666667       0.00000000 </v>
   <v>      -0.06666667       0.06666667       0.00000000 </v>
   <v>       0.10000000       0.10000000       0.00000000 </v>
   <v>       0.13333333       0.10000000       0.00000000 </v>
   <v>       0.16666667       0.10000000       0.00000000 </v>
   <v>       0.20000000       0.10000000       0.00000000 </v>
   <v>       0.23333333       0.10000000       0.00000000 </v>
   <v>       0.26666667       0.10000000       0.00000000 </v>
   <v>       0.30000000       0.10000000       0.00000000 </v>
   <v>       0.33333333       0.10000000       0.00000000 </v>
   <v>       0.36666667       0.10000000       0.00000000 </v>
   <v>       0.40000000       0.10000000       0.00000000 </v>
   <v>       0.43333333       0.10000000       0.00000000 </v>
   <v>       0.46666667       0.10000000       0.00000000 </v>
   <v>       0.50000000       0.10000000       0.00000000 </v>
   <v>      -0.46666667       0.10000000       0.00000000 </v>
   <v>      -0.43333333       0.10000000       0.00000000 </v>
   <v>      -0.40000000       0.10000000       0.00000000 </v>
   <v>      -0.36666667       0.10000000       0.00000000 </v>
   <v>      -0.33333333       0.10000000       0.00000000 </v>
   <v>      -0.30000000       0.10000000       0.00000000 </v>
   <v>      -0.26666667       0.10000000       0.00000000 </v>
   <v>      -0.23333333       0.10000000       0.00000000 </v>
   <v>      -0.20000000       0.10000000       0.00000000 </v>
   <v>      -0.16666667       0.10000000       0.00000000 </v>
   <v>      -0.13333333       0.10000000       0.00000000 </v>
   <v>      -0.10000000       0.10000000       0.00000000 </v>
   <v>       0.13333333       0.13333333       0.00000000 </v>
   <v>       0.16666667       0.13333333       0.00000000 </v>
   <v>       0.20000000       0.13333333       0.00000000 </v>
   <v>       0.23333333       0.13333333       0.00000000 </v>
   <v>       0.26666667       0.13333333       0.00000000 </v>
   <v>       0.30000000       0.13333333       0.00000000 </v>
   <v>       0.33333333       0.13333333       0.00000000 </v>
   <v>       0.36666667       0.13333333       0.00000000 </v>
   <v>       0.40000000       0.13333333       0.00000000 </v>
   <v>       0.43333333       0.13333333       0.00000000 </v>
   <v>       0.46666667       0.13333333       0.00000000 </v>
   <v>       0.50000000       0.13333333       0.00000000 </v>
   <v>      -0.46666667       0.13333333       0.00000000 </v>
   <v>      -0.43333333       0.13333333       0.00000000 </v>
   <v>      -0.40000000       0.13333333       0.00000000 </v>
   <v>      -0.36666667       0.13333333       0.00000000 </v>
   <v>      -0.33333333       0.13333333       0.00000000 </v>
   <v>      -0.30000000       0.13333333       0.00000000 </v>
   <v>      -0.26666667       0.13333333       0.00000000 </v>
   <v>      -0.23333333       0.13333333       0.00000000 </v>
   <v>      -0.20000000       0.13333333       0.00000000 </v>
   <v>      -0.16666667       0.13333333       0.00000000 </v>
   <v>      -0.13333333       0.13333333       0.00000000 </v>
   <v>       0.16666667       0.16666667       0.00000000 </v>
   <v>       0.20000000       0.16666667       0.00000000 </v>
   <v>       0.23333333       0.16666667       0.00000000 </v>
   <v>       0.26666667       0.16666667       0.00000000 </v>
   <v>       0.30000000       0.16666667       0.00000000 </v>
   <v>       0.33333333       0.16666667       0.00000000 </v>
   <v>       0.36666667       0.16666667       0.00000000 </v>
   <v>       0.40000000       0.16666667       0.00000000 </v>
   <v>       0.43333333       0.16666667       0.00000000 </v>
   <v>       0.46666667       0.16666667       0.00000000 </v>
   <v>       0.50000000       0.16666667       0.00000000 </v>
   <v>      -0.46666667       0.16666667       0.00000000 </v>
   <v>      -0.43333333       0.16666667       0.00000000 </v>
   <v>      -0.40000000       0.16666667       0.00000000 </v>
   <v>      -0.36666667       0.16666667       0.00000000 </v>
   <v>      -0.33333333       0.16666667       0.00000000 </v>
   <v>      -0.30000000       0.16666667       0.00000000 </v>
   <v>      -0.26666667       0.16666667       0.00000000 </v>
   <v>      -0.23333333       0.16666667       0.00000000 </v>
   <v>      -0.20000000       0.16666667       0.00000000 </v>
   <v>      -0.16666667       0.16666667       0.00000000 </v>
   <v>       0.20000000       0.20000000       0.00000000 </v>
   <v>       0.23333333       0.20000000       0.00000000 </v>
   <v>       0.26666667       0.20000000       0.00000000 </v>
   <v>       0.30000000       0.20000000       0.00000000 </v>
   <v>       0.33333333       0.20000000       0.00000000 </v>
   <v>       0.36666667       0.20000000       0.00000000 </v>
   <v>       0.40000000       0.20000000       0.00000000 </v>
   <v>       0.43333333       0.20000000       0.00000000 </v>
   <v>       0.46666667       0.20000000       0.00000000 </v>
   <v>       0.50000000       0.20000000       0.00000000 </v>
   <v>      -0.46666667       0.20000000       0.00000000 </v>
   <v>      -0.43333333       0.20000000       0.00000000 </v>
   <v>      -0.40000000       0.20000000       0.00000000 </v>
   <v>      -0.36666667       0.20000000       0.00000000 </v>
   <v>      -0.33333333       0.20000000       0.00000000 </v>
   <v>      -0.30000000       0.20000000       0.00000000 </v>
   <v>      -0.26666667       0.20000000       0.00000000 </v>
   <v>      -0.23333333       0.20000000       0.00000000 </v>
   <v>      -0.20000000       0.20000000       0.00000000 </v>
   <v>       0.23333333       0.23333333       0.00000000 </v>
   <v>       0.26666667       0.23333333       0.00000000 </v>
   <v>       0.30000000       0.23333333       0.00000000 </v>
   <v>       0.33333333       0.23333333       0.00000000 </v>
   <v>       0.36666667       0.23333333       0.00000000 </v>
   <v>       0.40000000       0.23333333       0.00000000 </v>
   <v>       0.43333333       0.23333333       0.00000000 </v>
   <v>       0.46666667       0.23333333       0.00000000 </v>
   <v>       0.50000000       0.23333333       0.00000000 </v>
   <v>      -0.46666667       0.23333333       0.00000000 </v>
   <v>      -0.43333333       0.23333333       0.00000000 </v>
   <v>      -0.40000000       0.23333333       0.00000000 </v>
   <v>      -0.36666667       0.23333333       0.00000000 </v>
   <v>      -0.33333333       0.23333333       0.00000000 </v>
   <v>      -0.30000000       0.23333333       0.00000000 </v>
   <v>      -0.26666667       0.23333333       0.00000000 </v>
   <v>      -0.23333333       0.23333333       0.00000000 </v>
   <v>       0.26666667       0.26666667       0.00000000 </v>
   <v>       0.30000000       0.26666667       0.00000000 </v>
   <v>       0.33333333       0.26666667       0.00000000 </v>
   <v>       0.36666667       0.26666667       0.00000000 </v>
   <v>       0.40000000       0.26666667       0.00000000 </v>
   <v>       0.43333333       0.26666667       0.00000000 </v>
   <v>       0.46666667       0.26666667       0.00000000 </v>
   <v>       0.50000000       0.26666667       0.00000000 </v>
   <v>      -0.46666667       0.26666667       0.00000000 </v>
   <v>      -0.43333333       0.26666667       0.00000000 </v>
   <v>      -0.40000000       0.26666667       0.00000000 </v>
   <v>      -0.36666667       0.26666667       0.00000000 </v>
   <v>      -0.33333333       0.26666667       0.00000000 </v>
   <v>      -0.30000000       0.26666667       0.00000000 </v>
   <v>      -0.26666667       0.26666667       0.00000000 </v>
   <v>       0.30000000       0.30000000       0.00000000 </v>
   <v>       0.33333333       0.30000000       0.00000000 </v>
   <v>       0.36666667       0.30000000       0.00000000 </v>
   <v>       0.40000000       0.30000000       0.00000000 </v>
   <v>       0.43333333       0.30000000       0.00000000 </v>
   <v>       0.46666667       0.30000000       0.00000000 </v>
   <v>       0.50000000       0.30000000       0.00000000 </v>
   <v>      -0.46666667       0.30000000       0.00000000 </v>
   <v>      -0.43333333       0.30000000       0.00000000 </v>
   <v>      -0.40000000       0.30000000       0.00000000 </v>
   <v>      -0.36666667       0.30000000       0.00000000 </v>
   <v>      -0.33333333       0.30000000       0.00000000 </v>
   <v>      -0.30000000       0.30000000       0.00000000 </v>
   <v>       0.33333333       0.33333333       0.00000000 </v>
   <v>       0.36666667       0.33333333       0.00000000 </v>
   <v>       0.40000000       0.33333333       0.00000000 </v>
   <v>       0.43333333       0.33333333       0.00000000 </v>
   <v>       0.46666667       0.33333333       0.00000000 </v>
   <v>       0.50000000       0.33333333       0.00000000 </v>
   <v>      -0.46666667       0.33333333       0.00000000 </v>
   <v>      -0.43333333       0.33333333       0.00000000 </v>
   <v>      -0.40000000       0.33333333       0.00000000 </v>
   <v>      -0.36666667       0.33333333       0.00000000 </v>
   <v>      -0.33333333       0.33333333       0.00000000 </v>
   <v>       0.36666667       0.36666667       0.00000000 </v>
   <v>       0.40000000       0.36666667       0.00000000 </v>
   <v>       0.43333333       0.36666667       0.00000000 </v>
   <v>       0.46666667       0.36666667       0.00000000 </v>
   <v>       0.50000000       0.36666667       0.00000000 </v>
   <v>      -0.46666667       0.36666667       0.00000000 </v>
   <v>      -0.43333333       0.36666667       0.00000000 </v>
   <v>      -0.40000000       0.36666667       0.00000000 </v>
   <v>      -0.36666667       0.36666667       0.00000000 </v>
   <v>       0.40000000       0.40000000       0.00000000 </v>
   <v>       0.43333333       0.40000000       0.00000000 </v>
   <v>       0.46666667       0.40000000       0.00000000 </v>
   <v>       0.50000000       0.40000000       0.00000000 </v>
   <v>      -0.46666667       0.40000000       0.00000000 </v>
   <v>      -0.43333333       0.40000000       0.00000000 </v>
   <v>      -0.40000000       0.40000000       0.00000000 </v>
   <v>       0.43333333       0.43333333       0.00000000 </v>
   <v>       0.46666667       0.43333333       0.00000000 </v>
   <v>       0.50000000       0.43333333       0.00000000 </v>
   <v>      -0.46666667       0.43333333       0.00000000 </v>
   <v>      -0.43333333       0.43333333       0.00000000 </v>
   <v>       0.46666667       0.46666667       0.00000000 </v>
   <v>       0.50000000       0.46666667       0.00000000 </v>
   <v>      -0.46666667       0.46666667       0.00000000 </v>
   <v>       0.50000000       0.50000000       0.00000000 </v>
   <v>       0.10000000       0.06666667       0.03333333 </v>
   <v>       0.13333333       0.06666667       0.03333333 </v>
   <v>       0.16666667       0.06666667       0.03333333 </v>
   <v>       0.20000000       0.06666667       0.03333333 </v>
   <v>       0.23333333       0.06666667       0.03333333 </v>
   <v>       0.26666667       0.06666667       0.03333333 </v>
   <v>       0.30000000       0.06666667       0.03333333 </v>
   <v>       0.33333333       0.06666667       0.03333333 </v>
   <v>       0.36666667       0.06666667       0.03333333 </v>
   <v>       0.40000000       0.06666667       0.03333333 </v>
   <v>       0.43333333       0.06666667       0.03333333 </v>
   <v>       0.46666667       0.06666667       0.03333333 </v>
   <v>       0.50000000       0.06666667       0.03333333 </v>
   <v>      -0.46666667       0.06666667       0.03333333 </v>
   <v>       0.13333333       0.10000000       0.03333333 </v>
   <v>       0.16666667       0.10000000       0.03333333 </v>
   <v>       0.20000000       0.10000000       0.03333333 </v>
   <v>       0.23333333       0.10000000       0.03333333 </v>
   <v>       0.26666667       0.10000000       0.03333333 </v>
   <v>       0.30000000       0.10000000       0.03333333 </v>
   <v>       0.33333333       0.10000000       0.03333333 </v>
   <v>       0.36666667       0.10000000       0.03333333 </v>
   <v>       0.40000000       0.10000000       0.03333333 </v>
   <v>       0.43333333       0.10000000       0.03333333 </v>
   <v>       0.46666667       0.10000000       0.03333333 </v>
   <v>       0.50000000       0.10000000       0.03333333 </v>
   <v>      -0.46666667       0.10000000       0.03333333 </v>
   <v>      -0.43333333       0.10000000       0.03333333 </v>
   <v>      -0.40000000       0.10000000       0.03333333 </v>
   <v>      -0.36666667       0.10000000       0.03333333 </v>
   <v>      -0.33333333       0.10000000       0.03333333 </v>
   <v>      -0.30000000       0.10000000       0.03333333 </v>
   <v>      -0.26666667       0.10000000       0.03333333 </v>
   <v>      -0.23333333       0.10000000       0.03333333 </v>
   <v>      -0.20000000       0.10000000       0.03333333 </v>
   <v>      -0.16666667       0.10000000       0.03333333 </v>
   <v>      -0.13333333       0.10000000       0.03333333 </v>
   <v>      -0.10000000       0.10000000       0.03333333 </v>
   <v>      -0.06666667       0.10000000       0.03333333 </v>
   <v>       0.16666667       0.13333333       0.03333333 </v>
   <v>       0.20000000       0.13333333       0.03333333 </v>
   <v>       0.23333333       0.13333333       0.03333333 </v>
   <v>       0.26666667       0.13333333       0.03333333 </v>
   <v>       0.30000000       0.13333333       0.03333333 </v>
   <v>       0.33333333       0.13333333       0.03333333 </v>
   <v>       0.36666667       0.13333333       0.03333333 </v>
   <v>       0.40000000       0.13333333       0.03333333 </v>
   <v>       0.43333333       0.13333333       0.03333333 </v>
   <v>       0.46666667       0.13333333       0.03333333 </v>
   <v>       0.50000000       0.13333333       0.03333333 </v>
   <v>      -0.46666667       0.13333333       0.03333333 </v>
   <v>      -0.43333333       0.13333333       0.03333333 </v>
   <v>      -0.40000000       0.13333333       0.03333333 </v>
   <v>      -0.36666667       0.13333333       0.03333333 </v>
   <v>      -0.33333333       0.13333333       0.03333333 </v>
   <v>      -0.30000000       0.13333333       0.03333333 </v>
   <v>      -0.26666667       0.13333333       0.03333333 </v>
   <v>      -0.23333333       0.13333333       0.03333333 </v>
   <v>      -0.20000000       0.13333333       0.03333333 </v>
   <v>      -0.16666667       0.13333333       0.03333333 </v>
   <v>      -0.13333333       0.13333333       0.03333333 </v>
   <v>      -0.10000000       0.13333333       0.03333333 </v>
   <v>       0.20000000       0.16666667       0.03333333 </v>
   <v>       0.23333333       0.16666667       0.03333333 </v>
   <v>       0.26666667       0.16666667       0.03333333 </v>
   <v>       0.30000000       0.16666667       0.03333333 </v>
   <v>       0.33333333       0.16666667       0.03333333 </v>
   <v>       0.36666667       0.16666667       0.03333333 </v>
   <v>       0.40000000       0.16666667       0.03333333 </v>
   <v>       0.43333333       0.16666667       0.03333333 </v>
   <v>       0.46666667       0.16666667       0.03333333 </v>
   <v>       0.50000000       0.16666667       0.03333333 </v>
   <v>      -0.46666667       0.16666667       0.03333333 </v>
   <v>      -0.43333333       0.16666667       0.03333333 </v>
   <v>      -0.40000000       0.16666667       0.03333333 </v>
   <v>      -0.36666667       0.16666667       0.03333333 </v>
   <v>      -0.33333333       0.16666667       0.03333333 </v>
   <v>      -0.30000000       0.16666667       0.03333333 </v>
   <v>      -0.26666667       0.16666667       0.03333333 </v>
   <v>      -0.23333333       0.16666667       0.03333333 </v>
   <v>      -0.20000000       0.16666667       0.03333333 </v>
   <v>      -0.16666667       0.16666667       0.03333333 </v>
   <v>      -0.13333333       0.16666667       0.03333333 </v>
   <v>       0.23333333       0.20000000       0.03333333 </v>
   <v>       0.26666667       0.20000000       0.03333333 </v>
   <v>       0.30000000       0.20000000       0.03333333 </v>
   <v>       0.33333333       0.20000000       0.03333333 </v>
   <v>       0.36666667       0.20000000       0.03333333 </v>
   <v>       0.40000000       0.20000000       0.03333333 </v>
   <v>       0.43333333       0.20000000       0.03333333 </v>
   <v>       0.46666667       0.20000000       0.03333333 </v>
   <v>       0.50000000       0.20000000       0.03333333 </v>
   <v>      -0.46666667       0.20000000       0.03333333 </v>
   <v>      -0.43333333       0.20000000       0.03333333 </v>
   <v>      -0.40000000       0.20000000       0.03333333 </v>
   <v>      -0.36666667       0.20000000       0.03333333 </v>
   <v>      -0.33333333       0.20000000       0.03333333 </v>
   <v>      -0.30000000       0.20000000       0.03333333 </v>
   <v>      -0.26666667       0.20000000       0.03333333 </v>
   <v>      -0.23333333       0.20000000       0.03333333 </v>
   <v>      -0.20000000       0.20000000       0.03333333 </v>
   <v>      -0.16666667       0.20000000       0.03333333 </v>
   <v>       0.26666667       0.23333333       0.03333333 </v>
   <v>       0.30000000       0.23333333       0.03333333 </v>
   <v>       0.33333333       0.23333333       0.03333333 </v>
   <v>       0.36666667       0.23333333       0.03333333 </v>
   <v>       0.40000000       0.23333333       0.03333333 </v>
   <v>       0.43333333       0.23333333       0.03333333 </v>
   <v>       0.46666667       0.23333333       0.03333333 </v>
   <v>       0.50000000       0.23333333       0.03333333 </v>
   <v>      -0.46666667       0.23333333       0.03333333 </v>
   <v>      -0.43333333       0.23333333       0.03333333 </v>
   <v>      -0.40000000       0.23333333       0.03333333 </v>
   <v>      -0.36666667       0.23333333       0.03333333 </v>
   <v>      -0.33333333       0.23333333       0.03333333 </v>
   <v>      -0.30000000       0.23333333       0.03333333 </v>
   <v>      -0.26666667       0.23333333       0.03333333 </v>
   <v>      -0.23333333       0.23333333       0.03333333 </v>
   <v>      -0.20000000       0.23333333       0.03333333 </v>
   <v>       0.30000000       0.26666667       0.03333333 </v>
   <v>       0.33333333       0.26666667       0.03333333 </v>
   <v>       0.36666667       0.26666667       0.03333333 </v>
   <v>       0.40000000       0.26666667       0.03333333 </v>
   <v>       0.43333333       0.26666667       0.03333333 </v>
   <v>       0.46666667       0.26666667       0.03333333 </v>
   <v>       0.50000000       0.26666667       0.03333333 </v>
   <v>      -0.46666667       0.26666667       0.03333333 </v>
   <v>      -0.43333333       0.26666667       0.03333333 </v>
   <v>      -0.40000000       0.26666667       0.03333333 </v>
   <v>      -0.36666667       0.26666667       0.03333333 </v>
   <v>      -0.33333333       0.26666667       0.03333333 </v>
   <v>      -0.30000000       0.26666667       0.03333333 </v>
   <v>      -0.26666667       0.26666667       0.03333333 </v>
   <v>      -0.23333333       0.26666667       0.03333333 </v>
   <v>       0.33333333       0.30000000       0.03333333 </v>
   <v>       0.36666667       0.30000000       0.03333333 </v>
   <v>       0.40000000       0.30000000       0.03333333 </v>
   <v>       0.43333333       0.30000000       0.03333333 </v>
   <v>       0.46666667       0.30000000       0.03333333 </v>
   <v>       0.50000000       0.30000000       0.03333333 </v>
   <v>      -0.46666667       0.30000000       0.03333333 </v>
   <v>      -0.43333333       0.30000000       0.03333333 </v>
   <v>      -0.40000000       0.30000000       0.03333333 </v>
   <v>      -0.36666667       0.30000000       0.03333333 </v>
   <v>      -0.33333333       0.30000000       0.03333333 </v>
   <v>      -0.30000000       0.30000000       0.03333333 </v>
   <v>      -0.26666667       0.30000000       0.03333333 </v>
   <v>       0.36666667       0.33333333       0.03333333 </v>
   <v>       0.40000000       0.33333333       0.03333333 </v>
   <v>       0.43333333       0.33333333       0.03333333 </v>
   <v>       0.46666667       0.33333333       0.03333333 </v>
   <v>       0.50000000       0.33333333       0.03333333 </v>
   <v>      -0.46666667       0.33333333       0.03333333 </v>
   <v>      -0.43333333       0.33333333       0.03333333 </v>
   <v>      -0.40000000       0.33333333       0.03333333 </v>
   <v>      -0.36666667       0.33333333       0.03333333 </v>
   <v>      -0.33333333       0.33333333       0.03333333 </v>
   <v>      -0.30000000       0.33333333       0.03333333 </v>
   <v>       0.40000000       0.36666667       0.03333333 </v>
   <v>       0.43333333       0.36666667       0.03333333 </v>
   <v>       0.46666667       0.36666667       0.03333333 </v>
   <v>       0.50000000       0.36666667       0.03333333 </v>
   <v>      -0.46666667       0.36666667       0.03333333 </v>
   <v>      -0.43333333       0.36666667       0.03333333 </v>
   <v>      -0.40000000       0.36666667       0.03333333 </v>
   <v>      -0.36666667       0.36666667       0.03333333 </v>
   <v>      -0.33333333       0.36666667       0.03333333 </v>
   <v>       0.43333333       0.40000000       0.03333333 </v>
   <v>       0.46666667       0.40000000       0.03333333 </v>
   <v>       0.50000000       0.40000000       0.03333333 </v>
   <v>      -0.46666667       0.40000000       0.03333333 </v>
   <v>      -0.43333333       0.40000000       0.03333333 </v>
   <v>      -0.40000000       0.40000000       0.03333333 </v>
   <v>      -0.36666667       0.40000000       0.03333333 </v>
   <v>       0.46666667       0.43333333       0.03333333 </v>
   <v>       0.50000000       0.43333333       0.03333333 </v>
   <v>      -0.46666667       0.43333333       0.03333333 </v>
   <v>      -0.43333333       0.43333333       0.03333333 </v>
   <v>      -0.40000000       0.43333333       0.03333333 </v>
   <v>       0.50000000       0.46666667       0.03333333 </v>
   <v>      -0.46666667       0.46666667       0.03333333 </v>
   <v>      -0.43333333       0.46666667       0.03333333 </v>
   <v>      -0.46666667       0.50000000       0.03333333 </v>
   <v>       0.20000000       0.13333333       0.06666667 </v>
   <v>       0.23333333       0.13333333       0.06666667 </v>
   <v>       0.26666667       0.13333333       0.06666667 </v>
   <v>       0.30000000       0.13333333       0.06666667 </v>
   <v>       0.33333333       0.13333333       0.06666667 </v>
   <v>       0.36666667       0.13333333       0.06666667 </v>
   <v>       0.40000000       0.13333333       0.06666667 </v>
   <v>       0.43333333       0.13333333       0.06666667 </v>
   <v>       0.46666667       0.13333333       0.06666667 </v>
   <v>       0.50000000       0.13333333       0.06666667 </v>
   <v>      -0.46666667       0.13333333       0.06666667 </v>
   <v>      -0.43333333       0.13333333       0.06666667 </v>
   <v>       0.23333333       0.16666667       0.06666667 </v>
   <v>       0.26666667       0.16666667       0.06666667 </v>
   <v>       0.30000000       0.16666667       0.06666667 </v>
   <v>       0.33333333       0.16666667       0.06666667 </v>
   <v>       0.36666667       0.16666667       0.06666667 </v>
   <v>       0.40000000       0.16666667       0.06666667 </v>
   <v>       0.43333333       0.16666667       0.06666667 </v>
   <v>       0.46666667       0.16666667       0.06666667 </v>
   <v>       0.50000000       0.16666667       0.06666667 </v>
   <v>      -0.46666667       0.16666667       0.06666667 </v>
   <v>      -0.43333333       0.16666667       0.06666667 </v>
   <v>      -0.40000000       0.16666667       0.06666667 </v>
   <v>      -0.36666667       0.16666667       0.06666667 </v>
   <v>      -0.33333333       0.16666667       0.06666667 </v>
   <v>      -0.30000000       0.16666667       0.06666667 </v>
   <v>      -0.26666667       0.16666667       0.06666667 </v>
   <v>      -0.23333333       0.16666667       0.06666667 </v>
   <v>      -0.20000000       0.16666667       0.06666667 </v>
   <v>      -0.16666667       0.16666667       0.06666667 </v>
   <v>      -0.13333333       0.16666667       0.06666667 </v>
   <v>      -0.10000000       0.16666667       0.06666667 </v>
   <v>       0.26666667       0.20000000       0.06666667 </v>
   <v>       0.30000000       0.20000000       0.06666667 </v>
   <v>       0.33333333       0.20000000       0.06666667 </v>
   <v>       0.36666667       0.20000000       0.06666667 </v>
   <v>       0.40000000       0.20000000       0.06666667 </v>
   <v>       0.43333333       0.20000000       0.06666667 </v>
   <v>       0.46666667       0.20000000       0.06666667 </v>
   <v>       0.50000000       0.20000000       0.06666667 </v>
   <v>      -0.46666667       0.20000000       0.06666667 </v>
   <v>      -0.43333333       0.20000000       0.06666667 </v>
   <v>      -0.40000000       0.20000000       0.06666667 </v>
   <v>      -0.36666667       0.20000000       0.06666667 </v>
   <v>      -0.33333333       0.20000000       0.06666667 </v>
   <v>      -0.30000000       0.20000000       0.06666667 </v>
   <v>      -0.26666667       0.20000000       0.06666667 </v>
   <v>      -0.23333333       0.20000000       0.06666667 </v>
   <v>      -0.20000000       0.20000000       0.06666667 </v>
   <v>      -0.16666667       0.20000000       0.06666667 </v>
   <v>      -0.13333333       0.20000000       0.06666667 </v>
   <v>       0.30000000       0.23333333       0.06666667 </v>
   <v>       0.33333333       0.23333333       0.06666667 </v>
   <v>       0.36666667       0.23333333       0.06666667 </v>
   <v>       0.40000000       0.23333333       0.06666667 </v>
   <v>       0.43333333       0.23333333       0.06666667 </v>
   <v>       0.46666667       0.23333333       0.06666667 </v>
   <v>       0.50000000       0.23333333       0.06666667 </v>
   <v>      -0.46666667       0.23333333       0.06666667 </v>
   <v>      -0.43333333       0.23333333       0.06666667 </v>
   <v>      -0.40000000       0.23333333       0.06666667 </v>
   <v>      -0.36666667       0.23333333       0.06666667 </v>
   <v>      -0.33333333       0.23333333       0.06666667 </v>
   <v>      -0.30000000       0.23333333       0.06666667 </v>
   <v>      -0.26666667       0.23333333       0.06666667 </v>
   <v>      -0.23333333       0.23333333       0.06666667 </v>
   <v>      -0.20000000       0.23333333       0.06666667 </v>
   <v>      -0.16666667       0.23333333       0.06666667 </v>
   <v>       0.33333333       0.26666667       0.06666667 </v>
   <v>       0.36666667       0.26666667       0.06666667 </v>
   <v>       0.40000000       0.26666667       0.06666667 </v>
   <v>       0.43333333       0.26666667       0.06666667 </v>
   <v>       0.46666667       0.26666667       0.06666667 </v>
   <v>       0.50000000       0.26666667       0.06666667 </v>
   <v>      -0.46666667       0.26666667       0.06666667 </v>
   <v>      -0.43333333       0.26666667       0.06666667 </v>
   <v>      -0.40000000       0.26666667       0.06666667 </v>
   <v>      -0.36666667       0.26666667       0.06666667 </v>
   <v>      -0.33333333       0.26666667       0.06666667 </v>
   <v>      -0.30000000       0.26666667       0.06666667 </v>
   <v>      -0.26666667       0.26666667       0.06666667 </v>
   <v>      -0.23333333       0.26666667       0.06666667 </v>
   <v>      -0.20000000       0.26666667       0.06666667 </v>
   <v>       0.36666667       0.30000000       0.06666667 </v>
   <v>       0.40000000       0.30000000       0.06666667 </v>
   <v>       0.43333333       0.30000000       0.06666667 </v>
   <v>       0.46666667       0.30000000       0.06666667 </v>
   <v>       0.50000000       0.30000000       0.06666667 </v>
   <v>      -0.46666667       0.30000000       0.06666667 </v>
   <v>      -0.43333333       0.30000000       0.06666667 </v>
   <v>      -0.40000000       0.30000000       0.06666667 </v>
   <v>      -0.36666667       0.30000000       0.06666667 </v>
   <v>      -0.33333333       0.30000000       0.06666667 </v>
   <v>      -0.30000000       0.30000000       0.06666667 </v>
   <v>      -0.26666667       0.30000000       0.06666667 </v>
   <v>      -0.23333333       0.30000000       0.06666667 </v>
   <v>       0.40000000       0.33333333       0.06666667 </v>
   <v>       0.43333333       0.33333333       0.06666667 </v>
   <v>       0.46666667       0.33333333       0.06666667 </v>
   <v>       0.50000000       0.33333333       0.06666667 </v>
   <v>      -0.46666667       0.33333333       0.06666667 </v>
   <v>      -0.43333333       0.33333333       0.06666667 </v>
   <v>      -0.40000000       0.33333333       0.06666667 </v>
   <v>      -0.36666667       0.33333333       0.06666667 </v>
   <v>      -0.33333333       0.33333333       0.06666667 </v>
   <v>      -0.30000000       0.33333333       0.06666667 </v>
   <v>      -0.26666667       0.33333333       0.06666667 </v>
   <v>       0.43333333       0.36666667       0.06666667 </v>
   <v>       0.46666667       0.36666667       0.06666667 </v>
   <v>       0.50000000       0.36666667       0.06666667 </v>
   <v>      -0.46666667       0.36666667       0.06666667 </v>
   <v>      -0.43333333       0.36666667       0.06666667 </v>
   <v>      -0.40000000       0.36666667       0.06666667 </v>
   <v>      -0.36666667       0.36666667       0.06666667 </v>
   <v>      -0.33333333       0.36666667       0.06666667 </v>
   <v>      -0.30000000       0.36666667       0.06666667 </v>
   <v>       0.46666667       0.40000000       0.06666667 </v>
   <v>       0.50000000       0.40000000       0.06666667 </v>
   <v>      -0.46666667       0.40000000       0.06666667 </v>
   <v>      -0.43333333       0.40000000       0.06666667 </v>
   <v>      -0.40000000       0.40000000       0.06666667 </v>
   <v>      -0.36666667       0.40000000       0.06666667 </v>
   <v>      -0.33333333       0.40000000       0.06666667 </v>
   <v>       0.50000000       0.43333333       0.06666667 </v>
   <v>      -0.46666667       0.43333333       0.06666667 </v>
   <v>      -0.43333333       0.43333333       0.06666667 </v>
   <v>      -0.40000000       0.43333333       0.06666667 </v>
   <v>      -0.36666667       0.43333333       0.06666667 </v>
   <v>      -0.46666667       0.46666667       0.06666667 </v>
   <v>      -0.43333333       0.46666667       0.06666667 </v>
   <v>      -0.40000000       0.46666667       0.06666667 </v>
   <v>      -0.43333333       0.50000000       0.06666667 </v>
   <v>       0.30000000       0.20000000       0.10000000 </v>
   <v>       0.33333333       0.20000000       0.10000000 </v>
   <v>       0.36666667       0.20000000       0.10000000 </v>
   <v>       0.40000000       0.20000000       0.10000000 </v>
   <v>       0.43333333       0.20000000       0.10000000 </v>
   <v>       0.46666667       0.20000000       0.10000000 </v>
   <v>       0.50000000       0.20000000       0.10000000 </v>
   <v>      -0.46666667       0.20000000       0.10000000 </v>
   <v>      -0.43333333       0.20000000       0.10000000 </v>
   <v>      -0.40000000       0.20000000       0.10000000 </v>
   <v>       0.33333333       0.23333333       0.10000000 </v>
   <v>       0.36666667       0.23333333       0.10000000 </v>
   <v>       0.40000000       0.23333333       0.10000000 </v>
   <v>       0.43333333       0.23333333       0.10000000 </v>
   <v>       0.46666667       0.23333333       0.10000000 </v>
   <v>       0.50000000       0.23333333       0.10000000 </v>
   <v>      -0.46666667       0.23333333       0.10000000 </v>
   <v>      -0.43333333       0.23333333       0.10000000 </v>
   <v>      -0.40000000       0.23333333       0.10000000 </v>
   <v>      -0.36666667       0.23333333       0.10000000 </v>
   <v>      -0.33333333       0.23333333       0.10000000 </v>
   <v>      -0.30000000       0.23333333       0.10000000 </v>
   <v>      -0.26666667       0.23333333       0.10000000 </v>
   <v>      -0.23333333       0.23333333       0.10000000 </v>
   <v>      -0.20000000       0.23333333       0.10000000 </v>
   <v>      -0.16666667       0.23333333       0.10000000 </v>
   <v>      -0.13333333       0.23333333       0.10000000 </v>
   <v>       0.36666667       0.26666667       0.10000000 </v>
   <v>       0.40000000       0.26666667       0.10000000 </v>
   <v>       0.43333333       0.26666667       0.10000000 </v>
   <v>       0.46666667       0.26666667       0.10000000 </v>
   <v>       0.50000000       0.26666667       0.10000000 </v>
   <v>      -0.46666667       0.26666667       0.10000000 </v>
   <v>      -0.43333333       0.26666667       0.10000000 </v>
   <v>      -0.40000000       0.26666667       0.10000000 </v>
   <v>      -0.36666667       0.26666667       0.10000000 </v>
   <v>      -0.33333333       0.26666667       0.10000000 </v>
   <v>      -0.30000000       0.26666667       0.10000000 </v>
   <v>      -0.26666667       0.26666667       0.10000000 </v>
   <v>      -0.23333333       0.26666667       0.10000000 </v>
   <v>      -0.20000000       0.26666667       0.10000000 </v>
   <v>      -0.16666667       0.26666667       0.10000000 </v>
   <v>       0.40000000       0.30000000       0.10000000 </v>
   <v>       0.43333333       0.30000000       0.10000000 </v>
   <v>       0.46666667       0.30000000       0.10000000 </v>
   <v>       0.50000000       0.30000000       0.10000000 </v>
   <v>      -0.46666667       0.30000000       0.10000000 </v>
   <v>      -0.43333333       0.30000000       0.10000000 </v>
   <v>      -0.40000000       0.30000000       0.10000000 </v>
   <v>      -0.36666667       0.30000000       0.10000000 </v>
   <v>      -0.33333333       0.30000000       0.10000000 </v>
   <v>      -0.30000000       0.30000000       0.10000000 </v>
   <v>      -0.26666667       0.30000000       0.10000000 </v>
   <v>      -0.23333333       0.30000000       0.10000000 </v>
   <v>      -0.20000000       0.30000000       0.10000000 </v>
   <v>       0.43333333       0.33333333       0.10000000 </v>
   <v>       0.46666667       0.33333333       0.10000000 </v>
   <v>       0.50000000       0.33333333       0.10000000 </v>
   <v>      -0.46666667       0.33333333       0.10000000 </v>
   <v>      -0.43333333       0.33333333       0.10000000 </v>
   <v>      -0.40000000       0.33333333       0.10000000 </v>
   <v>      -0.36666667       0.33333333       0.10000000 </v>
   <v>      -0.33333333       0.33333333       0.10000000 </v>
   <v>      -0.30000000       0.33333333       0.10000000 </v>
   <v>      -0.26666667       0.33333333       0.10000000 </v>
   <v>      -0.23333333       0.33333333       0.10000000 </v>
   <v>       0.46666667       0.36666667       0.10000000 </v>
   <v>       0.50000000       0.36666667       0.10000000 </v>
   <v>      -0.46666667       0.36666667       0.10000000 </v>
   <v>      -0.43333333       0.36666667       0.10000000 </v>
   <v>      -0.40000000       0.36666667       0.10000000 </v>
   <v>      -0.36666667       0.36666667       0.10000000 </v>
   <v>      -0.33333333       0.36666667       0.10000000 </v>
   <v>      -0.30000000       0.36666667       0.10000000 </v>
   <v>      -0.26666667       0.36666667       0.10000000 </v>
   <v>       0.50000000       0.40000000       0.10000000 </v>
   <v>      -0.46666667       0.40000000       0.10000000 </v>
   <v>      -0.43333333       0.40000000       0.10000000 </v>
   <v>      -0.40000000       0.40000000       0.10000000 </v>
   <v>      -0.36666667       0.40000000       0.10000000 </v>
   <v>      -0.33333333       0.40000000       0.10000000 </v>
   <v>      -0.30000000       0.40000000       0.10000000 </v>
   <v>      -0.46666667       0.43333333       0.10000000 </v>
   <v>      -0.43333333       0.43333333       0.10000000 </v>
   <v>      -0.40000000       0.43333333       0.10000000 </v>
   <v>      -0.36666667       0.43333333       0.10000000 </v>
   <v>      -0.33333333       0.43333333       0.10000000 </v>
   <v>      -0.43333333       0.46666667       0.10000000 </v>
   <v>      -0.40000000       0.46666667       0.10000000 </v>
   <v>      -0.36666667       0.46666667       0.10000000 </v>
   <v>      -0.40000000       0.50000000       0.10000000 </v>
   <v>       0.40000000       0.26666667       0.13333333 </v>
   <v>       0.43333333       0.26666667       0.13333333 </v>
   <v>       0.46666667       0.26666667       0.13333333 </v>
   <v>       0.50000000       0.26666667       0.13333333 </v>
   <v>      -0.46666667       0.26666667       0.13333333 </v>
   <v>      -0.43333333       0.26666667       0.13333333 </v>
   <v>      -0.40000000       0.26666667       0.13333333 </v>
   <v>      -0.36666667       0.26666667       0.13333333 </v>
   <v>       0.43333333       0.30000000       0.13333333 </v>
   <v>       0.46666667       0.30000000       0.13333333 </v>
   <v>       0.50000000       0.30000000       0.13333333 </v>
   <v>      -0.46666667       0.30000000       0.13333333 </v>
   <v>      -0.43333333       0.30000000       0.13333333 </v>
   <v>      -0.40000000       0.30000000       0.13333333 </v>
   <v>      -0.36666667       0.30000000       0.13333333 </v>
   <v>      -0.33333333       0.30000000       0.13333333 </v>
   <v>      -0.30000000       0.30000000       0.13333333 </v>
   <v>      -0.26666667       0.30000000       0.13333333 </v>
   <v>      -0.23333333       0.30000000       0.13333333 </v>
   <v>      -0.20000000       0.30000000       0.13333333 </v>
   <v>      -0.16666667       0.30000000       0.13333333 </v>
   <v>       0.46666667       0.33333333       0.13333333 </v>
   <v>       0.50000000       0.33333333       0.13333333 </v>
   <v>      -0.46666667       0.33333333       0.13333333 </v>
   <v>      -0.43333333       0.33333333       0.13333333 </v>
   <v>      -0.40000000       0.33333333       0.13333333 </v>
   <v>      -0.36666667       0.33333333       0.13333333 </v>
   <v>      -0.33333333       0.33333333       0.13333333 </v>
   <v>      -0.30000000       0.33333333       0.13333333 </v>
   <v>      -0.26666667       0.33333333       0.13333333 </v>
   <v>      -0.23333333       0.33333333       0.13333333 </v>
   <v>      -0.20000000       0.33333333       0.13333333 </v>
   <v>       0.50000000       0.36666667       0.13333333 </v>
   <v>      -0.46666667       0.36666667       0.13333333 </v>
   <v>      -0.43333333       0.36666667       0.13333333 </v>
   <v>      -0.40000000       0.36666667       0.13333333 </v>
   <v>      -0.36666667       0.36666667       0.13333333 </v>
   <v>      -0.33333333       0.36666667       0.13333333 </v>
   <v>      -0.30000000       0.36666667       0.13333333 </v>
   <v>      -0.26666667       0.36666667       0.13333333 </v>
   <v>      -0.23333333       0.36666667       0.13333333 </v>
   <v>      -0.46666667       0.40000000       0.13333333 </v>
   <v>      -0.43333333       0.40000000       0.13333333 </v>
   <v>      -0.40000000       0.40000000       0.13333333 </v>
   <v>      -0.36666667       0.40000000       0.13333333 </v>
   <v>      -0.33333333       0.40000000       0.13333333 </v>
   <v>      -0.30000000       0.40000000       0.13333333 </v>
   <v>      -0.26666667       0.40000000       0.13333333 </v>
   <v>      -0.43333333       0.43333333       0.13333333 </v>
   <v>      -0.40000000       0.43333333       0.13333333 </v>
   <v>      -0.36666667       0.43333333       0.13333333 </v>
   <v>      -0.33333333       0.43333333       0.13333333 </v>
   <v>      -0.30000000       0.43333333       0.13333333 </v>
   <v>      -0.40000000       0.46666667       0.13333333 </v>
   <v>      -0.36666667       0.46666667       0.13333333 </v>
   <v>      -0.33333333       0.46666667       0.13333333 </v>
   <v>      -0.36666667       0.50000000       0.13333333 </v>
   <v>       0.50000000       0.33333333       0.16666667 </v>
   <v>      -0.46666667       0.33333333       0.16666667 </v>
   <v>      -0.43333333       0.33333333       0.16666667 </v>
   <v>      -0.40000000       0.33333333       0.16666667 </v>
   <v>      -0.36666667       0.33333333       0.16666667 </v>
   <v>      -0.33333333       0.33333333       0.16666667 </v>
   <v>      -0.46666667       0.36666667       0.16666667 </v>
   <v>      -0.43333333       0.36666667       0.16666667 </v>
   <v>      -0.40000000       0.36666667       0.16666667 </v>
   <v>      -0.36666667       0.36666667       0.16666667 </v>
   <v>      -0.33333333       0.36666667       0.16666667 </v>
   <v>      -0.30000000       0.36666667       0.16666667 </v>
   <v>      -0.26666667       0.36666667       0.16666667 </v>
   <v>      -0.23333333       0.36666667       0.16666667 </v>
   <v>      -0.20000000       0.36666667       0.16666667 </v>
   <v>      -0.43333333       0.40000000       0.16666667 </v>
   <v>      -0.40000000       0.40000000       0.16666667 </v>
   <v>      -0.36666667       0.40000000       0.16666667 </v>
   <v>      -0.33333333       0.40000000       0.16666667 </v>
   <v>      -0.30000000       0.40000000       0.16666667 </v>
   <v>      -0.26666667       0.40000000       0.16666667 </v>
   <v>      -0.23333333       0.40000000       0.16666667 </v>
   <v>      -0.40000000       0.43333333       0.16666667 </v>
   <v>      -0.36666667       0.43333333       0.16666667 </v>
   <v>      -0.33333333       0.43333333       0.16666667 </v>
   <v>      -0.30000000       0.43333333       0.16666667 </v>
   <v>      -0.26666667       0.43333333       0.16666667 </v>
   <v>      -0.36666667       0.46666667       0.16666667 </v>
   <v>      -0.33333333       0.46666667       0.16666667 </v>
   <v>      -0.30000000       0.46666667       0.16666667 </v>
   <v>      -0.33333333       0.50000000       0.16666667 </v>
   <v>      -0.40000000       0.40000000       0.20000000 </v>
   <v>      -0.36666667       0.40000000       0.20000000 </v>
   <v>      -0.33333333       0.40000000       0.20000000 </v>
   <v>      -0.30000000       0.40000000       0.20000000 </v>
   <v>      -0.36666667       0.43333333       0.20000000 </v>
   <v>      -0.33333333       0.43333333       0.20000000 </v>
   <v>      -0.30000000       0.43333333       0.20000000 </v>
   <v>      -0.26666667       0.43333333       0.20000000 </v>
   <v>      -0.23333333       0.43333333       0.20000000 </v>
   <v>      -0.33333333       0.46666667       0.20000000 </v>
   <v>      -0.30000000       0.46666667       0.20000000 </v>
   <v>      -0.26666667       0.46666667       0.20000000 </v>
   <v>      -0.30000000       0.50000000       0.20000000 </v>
   <v>      -0.30000000       0.46666667       0.23333333 </v>
   <v>      -0.26666667       0.46666667       0.23333333 </v>
   <v>      -0.26666667       0.50000000       0.23333333 </v>
  </varray>
  <varray name="weights" >
   <v>       0.00003704 </v>
   <v>       0.00029630 </v>
   <v>       0.00029630 </v>
   <v>       0.00029630 </v>
   <v>       0.00029630 </v>
   <v>       0.00029630 </v>
   <v>       0.00029630 </v>
   <v>       0.00029630 </v>
   <v>       0.00029630 </v>
   <v>       0.00029630 </v>
   <v>       0.00029630 </v>
   <v>       0.00029630 </v>
   <v>       0.00029630 </v>
   <v>       0.00029630 </v>
   <v>       0.00029630 </v>
   <v>       0.00014815 </v>
   <v>       0.00022222 </v>
   <v>       0.00088889 </v>
   <v>       0.00088889 </v>
   <v>       0.00088889 </v>
   <v>       0.00088889 </v>
   <v>       0.00088889 </v>
   <v>       0.00088889 </v>
   <v>       0.00088889 </v>
   <v>       0.00088889 </v>
   <v>       0.00088889 </v>
   <v>       0.00088889 </v>
   <v>       0.00088889 </v>
   <v>       0.00088889 </v>
   <v>       0.00088889 </v>
   <v>       0.00088889 </v>
   <v>       0.00088889 </v>
   <v>       0.00088889 </v>
   <v>       0.00088889 </v>
   <v>       0.00088889 </v>
   <v>       0.00088889 </v>
   <v>       0.00088889 </v>
   <v>       0.00088889 </v>
   <v>       0.00088889 </v>
   <v>       0.00088889 </v>
   <v>       0.00088889 </v>
   <v>       0.00088889 </v>
   <v>       0.00088889 </v>
   <v>       0.00088889 </v>
   <v>       0.00044444 </v>
   <v>       0.00022222 </v>
   <v>       0.00088889 </v>
   <v>       0.00088889 </v>
   <v>       0.00088889 </v>
   <v>       0.00088889 </v>
   <v>       0.00088889 </v>
   <v>       0.00088889 </v>
   <v>       0.00088889 </v>
   <v>       0.00088889 </v>
   <v>       0.00088889 </v>
   <v>       0.00088889 </v>
   <v>       0.00088889 </v>
   <v>       0.00088889 </v>
   <v>       0.00088889 </v>
   <v>       0.00088889 </v>
   <v>       0.00088889 </v>
   <v>       0.00088889 </v>
   <v>       0.00088889 </v>
   <v>       0.00088889 </v>
   <v>       0.00088889 </v>
   <v>       0.00088889 </v>
   <v>       0.00088889 </v>
   <v>       0.00088889 </v>
   <v>       0.00088889 </v>
   <v>       0.00088889 </v>
   <v>       0.00088889 </v>
   <v>       0.00044444 </v>
   <v>       0.00022222 </v>
   <v>       0.00088889 </v>
   <v>       0.00088889 </v>
   <v>       0.00088889 </v>
   <v>       0.00088889 </v>
   <v>       0.00088889 </v>
   <v>       0.00088889 </v>
   <v>       0.00088889 </v>
   <v>       0.00088889 </v>
   <v>       0.00088889 </v>
   <v>       0.00088889 </v>
   <v>       0.00088889 </v>
   <v>       0.00088889 </v>
   <v>       0.00088889 </v>
   <v>       0.00088889 </v>
   <v>       0.00088889 </v>
   <v>       0.00088889 </v>
   <v>       0.00088889 </v>
   <v>       0.00088889 </v>
   <v>       0.00088889 </v>
   <v>       0.00088889 </v>
   <v>       0.00088889 </v>
   <v>       0.00088889 </v>
   <v>       0.00088889 </v>
   <v>       0.00044444 </v>
   <v>       0.00022222 </v>
   <v>       0.00088889 </v>
   <v>       0.00088889 </v>
   <v>       0.00088889 </v>
   <v>       0.00088889 </v>
   <v>       0.00088889 </v>
   <v>       0.00088889 </v>
   <v>       0.00088889 </v>
   <v>       0.00088889 </v>
   <v>       0.00088889 </v>
   <v>       0.00088889 </v>
   <v>       0.00088889 </v>
   <v>       0.00088889 </v>
   <v>       0.00088889 </v>
   <v>       0.00088889 </v>
   <v>       0.00088889 </v>
   <v>       0.00088889 </v>
   <v>       0.00088889 </v>
   <v>       0.00088889 </v>
   <v>       0.00088889 </v>
   <v>       0.00088889 </v>
   <v>       0.00088889 </v>
   <v>       0.00044444 </v>
   <v>       0.00022222 </v>
   <v>       0.00088889 </v>
   <v>       0.00088889 </v>
   <v>       0.00088889 </v>
   <v>       0.00088889 </v>
   <v>       0.00088889 </v>
   <v>       0.00088889 </v>
   <v>       0.00088889 </v>
   <v>       0.00088889 </v>
   <v>       0.00088889 </v>
   <v>       0.00088889 </v>
   <v>       0.00088889 </v>
   <v>       0.00088889 </v>
   <v>       0.00088889 </v>
   <v>       0.00088889 </v>
   <v>       0.00088889 </v>
   <v>       0.00088889 </v>
   <v>       0.00088889 </v>
   <v>       0.00088889 </v>
   <v>       0.00088889 </v>
   <v>       0.00044444 </v>
   <v>       0.00022222 </v>
   <v>       0.00088889 </v>
   <v>       0.00088889 </v>
   <v>       0.00088889 </v>
   <v>       0.00088889 </v>
   <v>       0.00088889 </v>
   <v>       0.00088889 </v>
   <v>       0.00088889 </v>
   <v>       0.00088889 </v>
   <v>       0.00088889 </v>
   <v>       0.00088889 </v>
   <v>       0.00088889 </v>
   <v>       0.00088889 </v>
   <v>       0.00088889 </v>
   <v>       0.00088889 </v>
   <v>       0.00088889 </v>
   <v>       0.00088889 </v>
   <v>       0.00088889 </v>
   <v>       0.00044444 </v>
   <v>       0.00022222 </v>
   <v>       0.00088889 </v>
   <v>       0.00088889 </v>
   <v>       0.00088889 </v>
   <v>       0.00088889 </v>
   <v>       0.00088889 </v>
   <v>       0.00088889 </v>
   <v>       0.00088889 </v>
   <v>       0.00088889 </v>
   <v>       0.00088889 </v>
   <v>       0.00088889 </v>
   <v>       0.00088889 </v>
   <v>       0.00088889 </v>
   <v>       0.00088889 </v>
   <v>       0.00088889 </v>
   <v>       0.00088889 </v>
   <v>       0.00044444 </v>
   <v>       0.00022222 </v>
   <v>       0.00088889 </v>
   <v>       0.00088889 </v>
   <v>       0.00088889 </v>
   <v>       0.00088889 </v>
   <v>       0.00088889 </v>
   <v>       0.00088889 </v>
   <v>       0.00088889 </v>
   <v>       0.00088889 </v>
   <v>       0.00088889 </v>
   <v>       0.00088889 </v>
   <v>       0.00088889 </v>
   <v>       0.00088889 </v>
   <v>       0.00088889 </v>
   <v>       0.00044444 </v>
   <v>       0.00022222 </v>
   <v>       0.00088889 </v>
   <v>       0.00088889 </v>
   <v>       0.00088889 </v>
   <v>       0.00088889 </v>
   <v>       0.00088889 </v>
   <v>       0.00088889 </v>
   <v>       0.00088889 </v>
   <v>       0.00088889 </v>
   <v>       0.00088889 </v>
   <v>       0.00088889 </v>
   <v>       0.00088889 </v>
   <v>       0.00044444 </v>
   <v>       0.00022222 </v>
   <v>       0.00088889 </v>
   <v>       0.00088889 </v>
   <v>       0.00088889 </v>
   <v>       0.00088889 </v>
   <v>       0.00088889 </v>
   <v>       0.00088889 </v>
   <v>       0.00088889 </v>
   <v>       0.00088889 </v>
   <v>       0.00088889 </v>
   <v>       0.00044444 </v>
   <v>       0.00022222 </v>
   <v>       0.00088889 </v>
   <v>       0.00088889 </v>
   <v>       0.00088889 </v>
   <v>       0.00088889 </v>
   <v>       0.00088889 </v>
   <v>       0.00088889 </v>
   <v>       0.00088889 </v>
   <v>       0.00044444 </v>
   <v>       0.00022222 </v>
   <v>       0.00088889 </v>
   <v>       0.00088889 </v>
   <v>       0.00088889 </v>
   <v>       0.00088889 </v>
   <v>       0.00088889 </v>
   <v>       0.00044444 </v>
   <v>       0.00022222 </v>
   <v>       0.00088889 </v>
   <v>       0.00088889 </v>
   <v>       0.00088889 </v>
   <v>       0.00044444 </v>
   <v>       0.00022222 </v>
   <v>       0.00088889 </v>
   <v>       0.00044444 </v>
   <v>       0.00011111 </v>
   <v>       0.00088889 </v>
   <v>       0.00177778 </v>
   <v>       0.00177778 </v>
   <v>       0.00177778 </v>
   <v>       0.00177778 </v>
   <v>       0.00177778 </v>
   <v>       0.00177778 </v>
   <v>       0.00177778 </v>
   <v>       0.00177778 </v>
   <v>       0.00177778 </v>
   <v>       0.00177778 </v>
   <v>       0.00177778 </v>
   <v>       0.00177778 </v>
   <v>       0.00088889 </v>
   <v>       0.00088889 </v>
   <v>       0.00177778 </v>
   <v>       0.00177778 </v>
   <v>       0.00177778 </v>
   <v>       0.00177778 </v>
   <v>       0.00177778 </v>
   <v>       0.00177778 </v>
   <v>       0.00177778 </v>
   <v>       0.00177778 </v>
   <v>       0.00177778 </v>
   <v>       0.00177778 </v>
   <v>       0.00177778 </v>
   <v>       0.00177778 </v>
   <v>       0.00177778 </v>
   <v>       0.00177778 </v>
   <v>       0.00177778 </v>
   <v>       0.00177778 </v>
   <v>       0.00177778 </v>
   <v>       0.00177778 </v>
   <v>       0.00177778 </v>
   <v>       0.00177778 </v>
   <v>       0.00177778 </v>
   <v>       0.00177778 </v>
   <v>       0.00177778 </v>
   <v>       0.00088889 </v>
   <v>       0.00088889 </v>
   <v>       0.00177778 </v>
   <v>       0.00177778 </v>
   <v>       0.00177778 </v>
   <v>       0.00177778 </v>
   <v>       0.00177778 </v>
   <v>       0.00177778 </v>
   <v>       0.00177778 </v>
   <v>       0.00177778 </v>
   <v>       0.00177778 </v>
   <v>       0.00177778 </v>
   <v>       0.00177778 </v>
   <v>       0.00177778 </v>
   <v>       0.00177778 </v>
   <v>       0.00177778 </v>
   <v>       0.00177778 </v>
   <v>       0.00177778 </v>
   <v>       0.00177778 </v>
   <v>       0.00177778 </v>
   <v>       0.00177778 </v>
   <v>       0.00177778 </v>
   <v>       0.00177778 </v>
   <v>       0.00088889 </v>
   <v>       0.00088889 </v>
   <v>       0.00177778 </v>
   <v>       0.00177778 </v>
   <v>       0.00177778 </v>
   <v>       0.00177778 </v>
   <v>       0.00177778 </v>
   <v>       0.00177778 </v>
   <v>       0.00177778 </v>
   <v>       0.00177778 </v>
   <v>       0.00177778 </v>
   <v>       0.00177778 </v>
   <v>       0.00177778 </v>
   <v>       0.00177778 </v>
   <v>       0.00177778 </v>
   <v>       0.00177778 </v>
   <v>       0.00177778 </v>
   <v>       0.00177778 </v>
   <v>       0.00177778 </v>
   <v>       0.00177778 </v>
   <v>       0.00177778 </v>
   <v>       0.00088889 </v>
   <v>       0.00088889 </v>
   <v>       0.00177778 </v>
   <v>       0.00177778 </v>
   <v>       0.00177778 </v>
   <v>       0.00177778 </v>
   <v>       0.00177778 </v>
   <v>       0.00177778 </v>
   <v>       0.00177778 </v>
   <v>       0.00177778 </v>
   <v>       0.00177778 </v>
   <v>       0.00177778 </v>
   <v>       0.00177778 </v>
   <v>       0.00177778 </v>
   <v>       0.00177778 </v>
   <v>       0.00177778 </v>
   <v>       0.00177778 </v>
   <v>       0.00177778 </v>
   <v>       0.00177778 </v>
   <v>       0.00088889 </v>
   <v>       0.00088889 </v>
   <v>       0.00177778 </v>
   <v>       0.00177778 </v>
   <v>       0.00177778 </v>
   <v>       0.00177778 </v>
   <v>       0.00177778 </v>
   <v>       0.00177778 </v>
   <v>       0.00177778 </v>
   <v>       0.00177778 </v>
   <v>       0.00177778 </v>
   <v>       0.00177778 </v>
   <v>       0.00177778 </v>
   <v>       0.00177778 </v>
   <v>       0.00177778 </v>
   <v>       0.00177778 </v>
   <v>       0.00177778 </v>
   <v>       0.00088889 </v>
   <v>       0.00088889 </v>
   <v>       0.00177778 </v>
   <v>       0.00177778 </v>
   <v>       0.00177778 </v>
   <v>       0.00177778 </v>
   <v>       0.00177778 </v>
   <v>       0.00177778 </v>
   <v>       0.00177778 </v>
   <v>       0.00177778 </v>
   <v>       0.00177778 </v>
   <v>       0.00177778 </v>
   <v>       0.00177778 </v>
   <v>       0.00177778 </v>
   <v>       0.00177778 </v>
   <v>       0.00088889 </v>
   <v>       0.00088889 </v>
   <v>       0.00177778 </v>
   <v>       0.00177778 </v>
   <v>       0.00177778 </v>
   <v>       0.00177778 </v>
   <v>       0.00177778 </v>
   <v>       0.00177778 </v>
   <v>       0.00177778 </v>
   <v>       0.00177778 </v>
   <v>       0.00177778 </v>
   <v>       0.00177778 </v>
   <v>       0.00177778 </v>
   <v>       0.00088889 </v>
   <v>       0.00088889 </v>
   <v>       0.00177778 </v>
   <v>       0.00177778 </v>
   <v>       0.00177778 </v>
   <v>       0.00177778 </v>
   <v>       0.00177778 </v>
   <v>       0.00177778 </v>
   <v>       0.00177778 </v>
   <v>       0.00177778 </v>
   <v>       0.00177778 </v>
   <v>       0.00088889 </v>
   <v>       0.00088889 </v>
   <v>       0.00177778 </v>
   <v>       0.00177778 </v>
   <v>       0.00177778 </v>
   <v>       0.00177778 </v>
   <v>       0.00177778 </v>
   <v>       0.00177778 </v>
   <v>       0.00177778 </v>
   <v>       0.00088889 </v>
   <v>       0.00088889 </v>
   <v>       0.00177778 </v>
   <v>       0.00177778 </v>
   <v>       0.00177778 </v>
   <v>       0.00177778 </v>
   <v>       0.00177778 </v>
   <v>       0.00088889 </v>
   <v>       0.00088889 </v>
   <v>       0.00177778 </v>
   <v>       0.00177778 </v>
   <v>       0.00177778 </v>
   <v>       0.00088889 </v>
   <v>       0.00088889 </v>
   <v>       0.00177778 </v>
   <v>       0.00088889 </v>
   <v>       0.00044444 </v>
   <v>       0.00088889 </v>
   <v>       0.00177778 </v>
   <v>       0.00177778 </v>
   <v>       0.00177778 </v>
   <v>       0.00177778 </v>
   <v>       0.00177778 </v>
   <v>       0.00177778 </v>
   <v>       0.00177778 </v>
   <v>       0.00177778 </v>
   <v>       0.00177778 </v>
   <v>       0.00177778 </v>
   <v>       0.00088889 </v>
   <v>       0.00088889 </v>
   <v>       0.00177778 </v>
   <v>       0.00177778 </v>
   <v>       0.00177778 </v>
   <v>       0.00177778 </v>
   <v>       0.00177778 </v>
   <v>       0.00177778 </v>
   <v>       0.00177778 </v>
   <v>       0.00177778 </v>
   <v>       0.00177778 </v>
   <v>       0.00177778 </v>
   <v>       0.00177778 </v>
   <v>       0.00177778 </v>
   <v>       0.00177778 </v>
   <v>       0.00177778 </v>
   <v>       0.00177778 </v>
   <v>       0.00177778 </v>
   <v>       0.00177778 </v>
   <v>       0.00177778 </v>
   <v>       0.00177778 </v>
   <v>       0.00088889 </v>
   <v>       0.00088889 </v>
   <v>       0.00177778 </v>
   <v>       0.00177778 </v>
   <v>       0.00177778 </v>
   <v>       0.00177778 </v>
   <v>       0.00177778 </v>
   <v>       0.00177778 </v>
   <v>       0.00177778 </v>
   <v>       0.00177778 </v>
   <v>       0.00177778 </v>
   <v>       0.00177778 </v>
   <v>       0.00177778 </v>
   <v>       0.00177778 </v>
   <v>       0.00177778 </v>
   <v>       0.00177778 </v>
   <v>       0.00177778 </v>
   <v>       0.00177778 </v>
   <v>       0.00177778 </v>
   <v>       0.00088889 </v>
   <v>       0.00088889 </v>
   <v>       0.00177778 </v>
   <v>       0.00177778 </v>
   <v>       0.00177778 </v>
   <v>       0.00177778 </v>
   <v>       0.00177778 </v>
   <v>       0.00177778 </v>
   <v>       0.00177778 </v>
   <v>       0.00177778 </v>
   <v>       0.00177778 </v>
   <v>       0.00177778 </v>
   <v>       0.00177778 </v>
   <v>       0.00177778 </v>
   <v>       0.00177778 </v>
   <v>       0.00177778 </v>
   <v>       0.00177778 </v>
   <v>       0.00088889 </v>
   <v>       0.00088889 </v>
   <v>       0.00177778 </v>
   <v>       0.00177778 </v>
   <v>       0.00177778 </v>
   <v>       0.00177778 </v>
   <v>       0.00177778 </v>
   <v>       0.00177778 </v>
   <v>       0.00177778 </v>
   <v>       0.00177778 </v>
   <v>       0.00177778 </v>
   <v>       0.00177778 </v>
   <v>       0.00177778 </v>
   <v>       0.00177778 </v>
   <v>       0.00177778 </v>
   <v>       0.00088889 </v>
   <v>       0.00088889 </v>
   <v>       0.00177778 </v>
   <v>       0.00177778 </v>
   <v>       0.00177778 </v>
   <v>       0.00177778 </v>
   <v>       0.00177778 </v>
   <v>       0.00177778 </v>
   <v>       0.00177778 </v>
   <v>       0.00177778 </v>
   <v>       0.00177778 </v>
   <v>       0.00177778 </v>
   <v>       0.00177778 </v>
   <v>       0.00088889 </v>
   <v>       0.00088889 </v>
   <v>       0.00177778 </v>
   <v>       0.00177778 </v>
   <v>       0.00177778 </v>
   <v>       0.00177778 </v>
   <v>       0.00177778 </v>
   <v>       0.00177778 </v>
   <v>       0.00177778 </v>
   <v>       0.00177778 </v>
   <v>       0.00177778 </v>
   <v>       0.00088889 </v>
   <v>       0.00088889 </v>
   <v>       0.00177778 </v>
   <v>       0.00177778 </v>
   <v>       0.00177778 </v>
   <v>       0.00177778 </v>
   <v>       0.00177778 </v>
   <v>       0.00177778 </v>
   <v>       0.00177778 </v>
   <v>       0.00088889 </v>
   <v>       0.00088889 </v>
   <v>       0.00177778 </v>
   <v>       0.00177778 </v>
   <v>       0.00177778 </v>
   <v>       0.00177778 </v>
   <v>       0.00177778 </v>
   <v>       0.00088889 </v>
   <v>       0.00088889 </v>
   <v>       0.00177778 </v>
   <v>       0.00177778 </v>
   <v>       0.00177778 </v>
   <v>       0.00088889 </v>
   <v>       0.00088889 </v>
   <v>       0.00177778 </v>
   <v>       0.00088889 </v>
   <v>       0.00044444 </v>
   <v>       0.00088889 </v>
   <v>       0.00177778 </v>
   <v>       0.00177778 </v>
   <v>       0.00177778 </v>
   <v>       0.00177778 </v>
   <v>       0.00177778 </v>
   <v>       0.00177778 </v>
   <v>       0.00177778 </v>
   <v>       0.00177778 </v>
   <v>       0.00088889 </v>
   <v>       0.00088889 </v>
   <v>       0.00177778 </v>
   <v>       0.00177778 </v>
   <v>       0.00177778 </v>
   <v>       0.00177778 </v>
   <v>       0.00177778 </v>
   <v>       0.00177778 </v>
   <v>       0.00177778 </v>
   <v>       0.00177778 </v>
   <v>       0.00177778 </v>
   <v>       0.00177778 </v>
   <v>       0.00177778 </v>
   <v>       0.00177778 </v>
   <v>       0.00177778 </v>
   <v>       0.00177778 </v>
   <v>       0.00177778 </v>
   <v>       0.00088889 </v>
   <v>       0.00088889 </v>
   <v>       0.00177778 </v>
   <v>       0.00177778 </v>
   <v>       0.00177778 </v>
   <v>       0.00177778 </v>
   <v>       0.00177778 </v>
   <v>       0.00177778 </v>
   <v>       0.00177778 </v>
   <v>       0.00177778 </v>
   <v>       0.00177778 </v>
   <v>       0.00177778 </v>
   <v>       0.00177778 </v>
   <v>       0.00177778 </v>
   <v>       0.00177778 </v>
   <v>       0.00088889 </v>
   <v>       0.00088889 </v>
   <v>       0.00177778 </v>
   <v>       0.00177778 </v>
   <v>       0.00177778 </v>
   <v>       0.00177778 </v>
   <v>       0.00177778 </v>
   <v>       0.00177778 </v>
   <v>       0.00177778 </v>
   <v>       0.00177778 </v>
   <v>       0.00177778 </v>
   <v>       0.00177778 </v>
   <v>       0.00177778 </v>
   <v>       0.00088889 </v>
   <v>       0.00088889 </v>
   <v>       0.00177778 </v>
   <v>       0.00177778 </v>
   <v>       0.00177778 </v>
   <v>       0.00177778 </v>
   <v>       0.00177778 </v>
   <v>       0.00177778 </v>
   <v>       0.00177778 </v>
   <v>       0.00177778 </v>
   <v>       0.00177778 </v>
   <v>       0.00088889 </v>
   <v>       0.00088889 </v>
   <v>       0.00177778 </v>
   <v>       0.00177778 </v>
   <v>       0.00177778 </v>
   <v>       0.00177778 </v>
   <v>       0.00177778 </v>
   <v>       0.00177778 </v>
   <v>       0.00177778 </v>
   <v>       0.00088889 </v>
   <v>       0.00088889 </v>
   <v>       0.00177778 </v>
   <v>       0.00177778 </v>
   <v>       0.00177778 </v>
   <v>       0.00177778 </v>
   <v>       0.00177778 </v>
   <v>       0.00088889 </v>
   <v>       0.00088889 </v>
   <v>       0.00177778 </v>
   <v>       0.00177778 </v>
   <v>       0.00177778 </v>
   <v>       0.00088889 </v>
   <v>       0.00088889 </v>
   <v>       0.00177778 </v>
   <v>       0.00088889 </v>
   <v>       0.00044444 </v>
   <v>       0.00088889 </v>
   <v>       0.00177778 </v>
   <v>       0.00177778 </v>
   <v>       0.00177778 </v>
   <v>       0.00177778 </v>
   <v>       0.00177778 </v>
   <v>       0.00177778 </v>
   <v>       0.00088889 </v>
   <v>       0.00088889 </v>
   <v>       0.00177778 </v>
   <v>       0.00177778 </v>
   <v>       0.00177778 </v>
   <v>       0.00177778 </v>
   <v>       0.00177778 </v>
   <v>       0.00177778 </v>
   <v>       0.00177778 </v>
   <v>       0.00177778 </v>
   <v>       0.00177778 </v>
   <v>       0.00177778 </v>
   <v>       0.00177778 </v>
   <v>       0.00088889 </v>
   <v>       0.00088889 </v>
   <v>       0.00177778 </v>
   <v>       0.00177778 </v>
   <v>       0.00177778 </v>
   <v>       0.00177778 </v>
   <v>       0.00177778 </v>
   <v>       0.00177778 </v>
   <v>       0.00177778 </v>
   <v>       0.00177778 </v>
   <v>       0.00177778 </v>
   <v>       0.00088889 </v>
   <v>       0.00088889 </v>
   <v>       0.00177778 </v>
   <v>       0.00177778 </v>
   <v>       0.00177778 </v>
   <v>       0.00177778 </v>
   <v>       0.00177778 </v>
   <v>       0.00177778 </v>
   <v>       0.00177778 </v>
   <v>       0.00088889 </v>
   <v>       0.00088889 </v>
   <v>       0.00177778 </v>
   <v>       0.00177778 </v>
   <v>       0.00177778 </v>
   <v>       0.00177778 </v>
   <v>       0.00177778 </v>
   <v>       0.00088889 </v>
   <v>       0.00088889 </v>
   <v>       0.00177778 </v>
   <v>       0.00177778 </v>
   <v>       0.00177778 </v>
   <v>       0.00088889 </v>
   <v>       0.00088889 </v>
   <v>       0.00177778 </v>
   <v>       0.00088889 </v>
   <v>       0.00044444 </v>
   <v>       0.00088889 </v>
   <v>       0.00177778 </v>
   <v>       0.00177778 </v>
   <v>       0.00177778 </v>
   <v>       0.00177778 </v>
   <v>       0.00088889 </v>
   <v>       0.00088889 </v>
   <v>       0.00177778 </v>
   <v>       0.00177778 </v>
   <v>       0.00177778 </v>
   <v>       0.00177778 </v>
   <v>       0.00177778 </v>
   <v>       0.00177778 </v>
   <v>       0.00177778 </v>
   <v>       0.00088889 </v>
   <v>       0.00088889 </v>
   <v>       0.00177778 </v>
   <v>       0.00177778 </v>
   <v>       0.00177778 </v>
   <v>       0.00177778 </v>
   <v>       0.00177778 </v>
   <v>       0.00088889 </v>
   <v>       0.00088889 </v>
   <v>       0.00177778 </v>
   <v>       0.00177778 </v>
   <v>       0.00177778 </v>
   <v>       0.00088889 </v>
   <v>       0.00088889 </v>
   <v>       0.00177778 </v>
   <v>       0.00088889 </v>
   <v>       0.00044444 </v>
   <v>       0.00088889 </v>
   <v>       0.00177778 </v>
   <v>       0.00177778 </v>
   <v>       0.00088889 </v>
   <v>       0.00088889 </v>
   <v>       0.00177778 </v>
   <v>       0.00177778 </v>
   <v>       0.00177778 </v>
   <v>       0.00088889 </v>
   <v>       0.00088889 </v>
   <v>       0.00177778 </v>
   <v>       0.00088889 </v>
   <v>       0.00044444 </v>
   <v>       0.00088889 </v>
   <v>       0.00088889 </v>
   <v>       0.00044444 </v>
  </varray>
 </kpoints>
 <parameters>
  <separator name="general" >
   <i type="string" name="SYSTEM">Si FCC</i>
   <i type="logical" name="LCOMPAT"> F  </i>
  </separator>
  <separator name="electronic" >
   <i type="string" name="PREC">accura</i>
   <i name="ENMAX">    520.00000000</i>
   <i name="ENAUG">    322.06900000</i>
   <i name="EDIFF">      0.00000000</i>
   <i type="int" name="IALGO">    38</i>
   <i type="int" name="IWAVPR">    10</i>
   <i type="int" name="NBANDS">     8</i>
   <i type="int" name="NBANDSLOW">    -1</i>
   <i type="int" name="NBANDSHIGH">    -1</i>
   <i name="NELECT">      8.00000000</i>
   <i type="int" name="TURBO">     0</i>
   <i type="int" name="IRESTART">     0</i>
   <i type="int" name="NREBOOT">     0</i>
   <i type="int" name="NMIN">     0</i>
   <i name="EREF">      0.00000000</i>
   <separator name="electronic smearing" >
    <i type="int" name="ISMEAR">     0</i>
    <i name="SIGMA">      0.03000000</i>
    <i name="KSPACING">      0.50000000</i>
    <i type="logical" name="KGAMMA"> T  </i>
    <i type="logical" name="KBLOWUP"> T  </i>
   </separator>
   <separator name="electronic projectors" >
    <i type="logical" name="LREAL"> F  </i>
    <v name="ROPT">      0.00000000</v>
    <i type="int" name="LMAXPAW">  -100</i>
    <i type="int" name="LMAXMIX">     2</i>
    <i type="logical" name="NLSPLINE"> F  </i>
   </separator>
   <separator name="electronic startup" >
    <i type="int" name="ISTART">     0</i>
    <i type="int" name="ICHARG">     2</i>
    <i type="int" name="INIWAV">     1</i>
   </separator>
   <separator name="electronic spin" >
    <i type="int" name="ISPIN">     1</i>
    <i type="logical" name="LNONCOLLINEAR"> F  </i>
    <v name="MAGMOM">      1.00000000      1.00000000</v>
    <i name="NUPDOWN">     -1.00000000</i>
    <i type="logical" name="LSORBIT"> F  </i>
    <v name="SAXIS">      0.00000000      0.00000000      1.00000000</v>
    <i type="logical" name="LSPIRAL"> F  </i>
    <v name="QSPIRAL">      0.00000000      0.00000000      0.00000000</v>
    <i type="logical" name="LZEROZ"> F  </i>
   </separator>
   <separator name="electronic exchange-correlation" >
    <i type="logical" name="LASPH"> F  </i>
    <i type="logical" name="LMETAGGA"> F  </i>
   </separator>
   <separator name="electronic convergence" >
    <i type="int" name="NELM">    60</i>
    <i type="int" name="NELMDL">     0</i>
    <i type="int" name="NELMIN">     2</i>
    <i name="ENINI">    520.00000000</i>
    <separator name="electronic convergence detail" >
     <i type="logical" name="LDIAG"> T  </i>
     <i type="logical" name="LSUBROT"> F  </i>
     <i name="WEIMIN">      0.00000000</i>
     <i name="EBREAK">      0.00000000</i>
     <i name="DEPER">      0.30000000</i>
     <i type="int" name="NRMM">     4</i>
     <i name="TIME">      0.40000000</i>
    </separator>
   </separator>
   <separator name="electronic mixer" >
    <i name="AMIX">      0.40000000</i>
    <i name="BMIX">      1.00000000</i>
    <i name="AMIN">      0.10000000</i>
    <i name="AMIX_MAG">      1.60000000</i>
    <i name="BMIX_MAG">      1.00000000</i>
    <separator name="electronic mixer details" >
     <i type="int" name="IMIX">     4</i>
     <i type="logical" name="MIXFIRST"> F  </i>
     <i type="int" name="MAXMIX">   -45</i>
     <i name="WC">    100.00000000</i>
     <i type="int" name="INIMIX">     1</i>
     <i type="int" name="MIXPRE">     1</i>
     <i type="int" name="MREMOVE">     5</i>
    </separator>
   </separator>
   <separator name="electronic dipolcorrection" >
    <i type="logical" name="LDIPOL"> F  </i>
    <i type="logical" name="LMONO"> F  </i>
    <i type="int" name="IDIPOL">     0</i>
    <i name="EPSILON">      1.00000000</i>
    <v name="DIPOL">   -100.00000000   -100.00000000   -100.00000000</v>
    <i name="EFIELD">      0.00000000</i>
   </separator>
  </separator>
  <separator name="grids" >
   <i type="int" name="NGX">    30</i>
   <i type="int" name="NGY">    30</i>
   <i type="int" name="NGZ">    30</i>
   <i type="int" name="NGXF">    60</i>
   <i type="int" name="NGYF">    60</i>
   <i type="int" name="NGZF">    60</i>
   <i type="logical" name="ADDGRID"> F  </i>
  </separator>
  <separator name="ionic" >
   <i type="int" name="NSW">     0</i>
   <i type="int" name="IBRION">    -1</i>
   <i type="int" name="MDALGO">     0</i>
   <i type="int" name="ISIF">     0</i>
   <i name="PSTRESS">      0.00000000</i>
   <i name="EDIFFG">     -0.00001000</i>
   <i type="int" name="NFREE">     0</i>
   <i name="POTIM">      0.50000000</i>
   <i name="SMASS">     -3.00000000</i>
   <i name="SCALEE">      1.00000000</i>
  </separator>
  <separator name="ionic md" >
   <i name="TEBEG">      0.00010000</i>
   <i name="TEEND">      0.00010000</i>
   <i type="int" name="NBLOCK">     1</i>
   <i type="int" name="KBLOCK">     1</i>
   <i type="int" name="NPACO">   256</i>
   <i name="APACO">     10.00000000</i>
  </separator>
  <separator name="symmetry" >
   <i type="int" name="ISYM">     2</i>
   <i name="SYMPREC">      0.00001000</i>
  </separator>
  <separator name="dos" >
   <i type="int" name="LORBIT">    11</i>
   <v name="RWIGS">     -1.00000000</v>
   <i type="int" name="NEDOS">   301</i>
   <i name="EMIN">     10.00000000</i>
   <i name="EMAX">    -10.00000000</i>
   <i name="EFERMI">      0.00000000</i>
  </separator>
  <separator name="writing" >
   <i type="int" name="NWRITE">     2</i>
   <i type="logical" name="LWAVE"> F  </i>
   <i type="logical" name="LDOWNSAMPLE"> F  </i>
   <i type="logical" name="LCHARG"> F  </i>
   <i type="logical" name="LPARD"> F  </i>
   <i type="logical" name="LVTOT"> F  </i>
   <i type="logical" name="LVHAR"> F  </i>
   <i type="logical" name="LELF"> F  </i>
   <i type="logical" name="LOPTICS"> F  </i>
   <v name="STM">      0.00000000      0.00000000      0.00000000      0.00000000      0.00000000      0.00000000      0.00000000</v>
  </separator>
  <separator name="performance" >
   <i type="int" name="NPAR">     8</i>
   <i type="int" name="NSIM">     4</i>
   <i type="int" name="NBLK">    -1</i>
   <i type="logical" name="LPLANE"> T  </i>
   <i type="logical" name="LSCALAPACK"> T  </i>
   <i type="logical" name="LSCAAWARE"> F  </i>
   <i type="logical" name="LSCALU"> F  </i>
   <i type="logical" name="LASYNC"> F  </i>
   <i type="logical" name="LORBITALREAL"> F  </i>
  </separator>
  <separator name="miscellaneous" >
   <i type="int" name="IDIOT">     3</i>
   <i type="int" name="PHON_NSTRUCT">    -1</i>
   <i type="logical" name="LMUSIC"> F  </i>
   <v name="POMASS">     28.08500000</v>
   <v name="DARWINR">      0.00000000</v>
   <v name="DARWINV">      1.00000000</v>
   <i type="logical" name="LCORR"> T  </i>
  </separator>
  <i type="logical" name="GGA_COMPAT"> T  </i>
  <i type="logical" name="LBERRY"> F  </i>
  <i type="int" name="ICORELEVEL">     0</i>
  <i type="logical" name="LDAU"> F  </i>
  <i type="int" name="I_CONSTRAINED_M">     0</i>
  <separator name="electronic exchange-correlation" >
   <i type="string" name="GGA">PE</i>
   <i type="int" name="VOSKOWN">     0</i>
   <i type="logical" name="LHFCALC"> F  </i>
   <i type="string" name="PRECFOCK"></i>
   <i type="logical" name="LSYMGRAD"> F  </i>
   <i type="logical" name="LHFONE"> F  </i>
   <i type="logical" name="LRHFCALC"> F  </i>
   <i type="logical" name="LTHOMAS"> F  </i>
   <i type="logical" name="LMODELHF"> F  </i>
   <i type="logical" name="LFOCKACE"> F  </i>
   <i name="ENCUT4O">     -1.00000000</i>
   <i type="int" name="EXXOEP">     0</i>
   <i type="int" name="FOURORBIT">     0</i>
   <i name="AEXX">      0.00000000</i>
   <i name="HFALPHA">      0.00000000</i>
   <i name="MCALPHA">      0.00000000</i>
   <i name="ALDAX">      1.00000000</i>
   <i name="AGGAX">      1.00000000</i>
   <i name="ALDAC">      1.00000000</i>
   <i name="AGGAC">      1.00000000</i>
   <i type="int" name="NKREDX">     1</i>
   <i type="int" name="NKREDY">     1</i>
   <i type="int" name="NKREDZ">     1</i>
   <i type="logical" name="SHIFTRED"> F  </i>
   <i type="logical" name="ODDONLY"> F  </i>
   <i type="logical" name="EVENONLY"> F  </i>
   <i type="int" name="LMAXFOCK">     0</i>
   <i type="int" name="NMAXFOCKAE">     0</i>
   <i type="logical" name="LFOCKAEDFT"> F  </i>
[...]
       </set>
       <set comment="band 5">
        <r>  0.0244  0.0497  0.0195  0.0174  0.0000  0.0000  0.0000  0.0000  0.0000 </r>
        <r>  0.0244  0.0497  0.0195  0.0174  0.0000  0.0000  0.0000  0.0000  0.0000 </r>
       </set>
       <set comment="band 6">
        <r>  0.0107  0.0677  0.0076  0.0094  0.0000  0.0000  0.0000  0.0000  0.0000 </r>
        <r>  0.0107  0.0677  0.0076  0.0094  0.0000  0.0000  0.0000  0.0000  0.0000 </r>
       </set>
       <set comment="band 7">
        <r>  0.0581  0.0138  0.0395  0.0478  0.0000  0.0000  0.0000  0.0000  0.0000 </r>
        <r>  0.0581  0.0138  0.0395  0.0478  0.0000  0.0000  0.0000  0.0000  0.0000 </r>
       </set>
       <set comment="band 8">
        <r>  0.0297  0.0371  0.0422  0.0302  0.0000  0.0000  0.0000  0.0000  0.0000 </r>
        <r>  0.0297  0.0371  0.0422  0.0302  0.0000  0.0000  0.0000  0.0000  0.0000 </r>
       </set>
      </set>
      <set comment="kpoint 743">
       <set comment="band 1">
        <r>  0.2089  0.0005  0.0195  0.0146  0.0000  0.0000  0.0000  0.0000  0.0000 </r>
        <r>  0.2089  0.0005  0.0195  0.0146  0.0000  0.0000  0.0000  0.0000  0.0000 </r>
       </set>
       <set comment="band 2">
        <r>  0.1958  0.0011  0.0262  0.0211  0.0000  0.0000  0.0000  0.0000  0.0000 </r>
        <r>  0.1958  0.0011  0.0262  0.0211  0.0000  0.0000  0.0000  0.0000  0.0000 </r>
       </set>
       <set comment="band 3">
        <r>  0.0018  0.0621  0.0442  0.0496  0.0000  0.0000  0.0000  0.0000  0.0000 </r>
        <r>  0.0018  0.0621  0.0442  0.0496  0.0000  0.0000  0.0000  0.0000  0.0000 </r>
       </set>
       <set comment="band 4">
        <r>  0.0006  0.0759  0.0394  0.0501  0.0000  0.0000  0.0000  0.0000  0.0000 </r>
        <r>  0.0006  0.0759  0.0394  0.0501  0.0000  0.0000  0.0000  0.0000  0.0000 </r>
       </set>
       <set comment="band 5">
        <r>  0.0207  0.0561  0.0165  0.0131  0.0000  0.0000  0.0000  0.0000  0.0000 </r>
        <r>  0.0207  0.0561  0.0165  0.0131  0.0000  0.0000  0.0000  0.0000  0.0000 </r>
       </set>
       <set comment="band 6">
        <r>  0.0133  0.0697  0.0097  0.0101  0.0000  0.0000  0.0000  0.0000  0.0000 </r>
        <r>  0.0133  0.0697  0.0097  0.0101  0.0000  0.0000  0.0000  0.0000  0.0000 </r>
       </set>
       <set comment="band 7">
        <r>  0.0501  0.0177  0.0357  0.0453  0.0000  0.0000  0.0000  0.0000  0.0000 </r>
        <r>  0.0501  0.0177  0.0357  0.0453  0.0000  0.0000  0.0000  0.0000  0.0000 </r>
       </set>
       <set comment="band 8">
        <r>  0.0389  0.0252  0.0456  0.0370  0.0000  0.0000  0.0000  0.0000  0.0000 </r>
        <r>  0.0389  0.0252  0.0456  0.0370  0.0000  0.0000  0.0000  0.0000  0.0000 </r>
       </set>
      </set>
      <set comment="kpoint 744">
       <set comment="band 1">
        <r>  0.2092  0.0008  0.0146  0.0187  0.0000  0.0000  0.0000  0.0000  0.0000 </r>
        <r>  0.2092  0.0008  0.0146  0.0187  0.0000  0.0000  0.0000  0.0000  0.0000 </r>
       </set>
       <set comment="band 2">
        <r>  0.1952  0.0012  0.0265  0.0215  0.0000  0.0000  0.0000  0.0000  0.0000 </r>
        <r>  0.1952  0.0012  0.0265  0.0215  0.0000  0.0000  0.0000  0.0000  0.0000 </r>
       </set>
       <set comment="band 3">
        <r>  0.0017  0.0614  0.0537  0.0403  0.0000  0.0000  0.0000  0.0000  0.0000 </r>
        <r>  0.0017  0.0614  0.0537  0.0403  0.0000  0.0000  0.0000  0.0000  0.0000 </r>
       </set>
       <set comment="band 4">
        <r>  0.0009  0.0764  0.0365  0.0531  0.0000  0.0000  0.0000  0.0000  0.0000 </r>
        <r>  0.0009  0.0764  0.0365  0.0531  0.0000  0.0000  0.0000  0.0000  0.0000 </r>
       </set>
       <set comment="band 5">
        <r>  0.0163  0.0628  0.0136  0.0094  0.0000  0.0000  0.0000  0.0000  0.0000 </r>
        <r>  0.0163  0.0628  0.0136  0.0094  0.0000  0.0000  0.0000  0.0000  0.0000 </r>
       </set>
       <set comment="band 6">
        <r>  0.0242  0.0544  0.0205  0.0185  0.0000  0.0000  0.0000  0.0000  0.0000 </r>
        <r>  0.0242  0.0544  0.0205  0.0185  0.0000  0.0000  0.0000  0.0000  0.0000 </r>
       </set>
       <set comment="band 7">
        <r>  0.0406  0.0339  0.0330  0.0261  0.0000  0.0000  0.0000  0.0000  0.0000 </r>
        <r>  0.0406  0.0339  0.0330  0.0261  0.0000  0.0000  0.0000  0.0000  0.0000 </r>
       </set>
       <set comment="band 8">
        <r>  0.0419  0.0171  0.0395  0.0528  0.0000  0.0000  0.0000  0.0000  0.0000 </r>
        <r>  0.0419  0.0171  0.0395  0.0528  0.0000  0.0000  0.0000  0.0000  0.0000 </r>
       </set>
      </set>
      <set comment="kpoint 745">
       <set comment="band 1">
        <r>  0.2087  0.0012  0.0107  0.0206  0.0000  0.0000  0.0000  0.0000  0.0000 </r>
        <r>  0.2087  0.0012  0.0107  0.0206  0.0000  0.0000  0.0000  0.0000  0.0000 </r>
       </set>
       <set comment="band 2">
        <r>  0.1933  0.0015  0.0261  0.0240  0.0000  0.0000  0.0000  0.0000  0.0000 </r>
        <r>  0.1933  0.0015  0.0261  0.0240  0.0000  0.0000  0.0000  0.0000  0.0000 </r>
       </set>
       <set comment="band 3">
        <r>  0.0028  0.0600  0.0609  0.0342  0.0000  0.0000  0.0000  0.0000  0.0000 </r>
        <r>  0.0028  0.0600  0.0609  0.0342  0.0000  0.0000  0.0000  0.0000  0.0000 </r>
       </set>
       <set comment="band 4">
        <r>  0.0011  0.0781  0.0361  0.0533  0.0000  0.0000  0.0000  0.0000  0.0000 </r>
        <r>  0.0011  0.0781  0.0361  0.0533  0.0000  0.0000  0.0000  0.0000  0.0000 </r>
       </set>
       <set comment="band 5">
        <r>  0.0093  0.0715  0.0090  0.0048  0.0000  0.0000  0.0000  0.0000  0.0000 </r>
        <r>  0.0093  0.0715  0.0090  0.0048  0.0000  0.0000  0.0000  0.0000  0.0000 </r>
       </set>
       <set comment="band 6">
        <r>  0.0209  0.0535  0.0225  0.0205  0.0000  0.0000  0.0000  0.0000  0.0000 </r>
        <r>  0.0209  0.0535  0.0225  0.0205  0.0000  0.0000  0.0000  0.0000  0.0000 </r>
       </set>
       <set comment="band 7">
        <r>  0.0623  0.0094  0.0448  0.0366  0.0000  0.0000  0.0000  0.0000  0.0000 </r>
        <r>  0.0623  0.0094  0.0448  0.0366  0.0000  0.0000  0.0000  0.0000  0.0000 </r>
       </set>
       <set comment="band 8">
        <r>  0.0303  0.0321  0.0300  0.0468  0.0000  0.0000  0.0000  0.0000  0.0000 </r>
        <r>  0.0303  0.0321  0.0300  0.0468  0.0000  0.0000  0.0000  0.0000  0.0000 </r>
       </set>
      </set>
      <set comment="kpoint 746">
       <set comment="band 1">
        <r>  0.2053  0.0004  0.0264  0.0098  0.0000  0.0000  0.0000  0.0000  0.0000 </r>
        <r>  0.2053  0.0004  0.0264  0.0098  0.0000  0.0000  0.0000  0.0000  0.0000 </r>
       </set>
       <set comment="band 2">
        <r>  0.1993  0.0002  0.0297  0.0165  0.0000  0.0000  0.0000  0.0000  0.0000 </r>
        <r>  0.1993  0.0002  0.0297  0.0165  0.0000  0.0000  0.0000  0.0000  0.0000 </r>
       </set>
       <set comment="band 3">
        <r>  0.0023  0.0660  0.0300  0.0629  0.0000  0.0000  0.0000  0.0000  0.0000 </r>
        <r>  0.0023  0.0660  0.0300  0.0629  0.0000  0.0000  0.0000  0.0000  0.0000 </r>
       </set>
       <set comment="band 4">
        <r>  0.0000  0.0748  0.0375  0.0519  0.0000  0.0000  0.0000  0.0000  0.0000 </r>
        <r>  0.0000  0.0748  0.0375  0.0519  0.0000  0.0000  0.0000  0.0000  0.0000 </r>
       </set>
       <set comment="band 5">
        <r>  0.0279  0.0444  0.0217  0.0214  0.0000  0.0000  0.0000  0.0000  0.0000 </r>
        <r>  0.0279  0.0444  0.0217  0.0214  0.0000  0.0000  0.0000  0.0000  0.0000 </r>
       </set>
       <set comment="band 6">
        <r>  0.0252  0.0489  0.0153  0.0149  0.0000  0.0000  0.0000  0.0000  0.0000 </r>
        <r>  0.0252  0.0489  0.0153  0.0149  0.0000  0.0000  0.0000  0.0000  0.0000 </r>
       </set>
       <set comment="band 7">
        <r>  0.0407  0.0350  0.0334  0.0364  0.0000  0.0000  0.0000  0.0000  0.0000 </r>
        <r>  0.0407  0.0350  0.0334  0.0364  0.0000  0.0000  0.0000  0.0000  0.0000 </r>
       </set>
       <set comment="band 8">
        <r>  0.0290  0.0415  0.0384  0.0305  0.0000  0.0000  0.0000  0.0000  0.0000 </r>
        <r>  0.0290  0.0415  0.0384  0.0305  0.0000  0.0000  0.0000  0.0000  0.0000 </r>
       </set>
      </set>
      <set comment="kpoint 747">
       <set comment="band 1">
        <r>  0.2062  0.0002  0.0239  0.0138  0.0000  0.0000  0.0000  0.0000  0.0000 </r>
        <r>  0.2062  0.0002  0.0239  0.0138  0.0000  0.0000  0.0000  0.0000  0.0000 </r>
       </set>
       <set comment="band 2">
        <r>  0.2004  0.0002  0.0274  0.0169  0.0000  0.0000  0.0000  0.0000  0.0000 </r>
        <r>  0.2004  0.0002  0.0274  0.0169  0.0000  0.0000  0.0000  0.0000  0.0000 </r>
       </set>
       <set comment="band 3">
        <r>  0.0006  0.0663  0.0390  0.0530  0.0000  0.0000  0.0000  0.0000  0.0000 </r>
        <r>  0.0006  0.0663  0.0390  0.0530  0.0000  0.0000  0.0000  0.0000  0.0000 </r>
       </set>
       <set comment="band 4">
        <r>  0.0006  0.0729  0.0357  0.0545  0.0000  0.0000  0.0000  0.0000  0.0000 </r>
        <r>  0.0006  0.0729  0.0357  0.0545  0.0000  0.0000  0.0000  0.0000  0.0000 </r>
       </set>
       <set comment="band 5">
        <r>  0.0251  0.0501  0.0180  0.0163  0.0000  0.0000  0.0000  0.0000  0.0000 </r>
        <r>  0.0251  0.0501  0.0180  0.0163  0.0000  0.0000  0.0000  0.0000  0.0000 </r>
       </set>
       <set comment="band 6">
        <r>  0.0173  0.0599  0.0114  0.0149  0.0000  0.0000  0.0000  0.0000  0.0000 </r>
        <r>  0.0173  0.0599  0.0114  0.0149  0.0000  0.0000  0.0000  0.0000  0.0000 </r>
       </set>
       <set comment="band 7">
        <r>  0.0446  0.0266  0.0387  0.0392  0.0000  0.0000  0.0000  0.0000  0.0000 </r>
        <r>  0.0446  0.0266  0.0387  0.0392  0.0000  0.0000  0.0000  0.0000  0.0000 </r>
       </set>
       <set comment="band 8">
        <r>  0.0360  0.0337  0.0395  0.0334  0.0000  0.0000  0.0000  0.0000  0.0000 </r>
        <r>  0.0360  0.0337  0.0395  0.0334  0.0000  0.0000  0.0000  0.0000  0.0000 </r>
       </set>
      </set>
      <set comment="kpoint 748">
       <set comment="band 1">
        <r>  0.2080  0.0003  0.0188  0.0174  0.0000  0.0000  0.0000  0.0000  0.0000 </r>
        <r>  0.2080  0.0003  0.0188  0.0174  0.0000  0.0000  0.0000  0.0000  0.0000 </r>
       </set>
       <set comment="band 2">
        <r>  0.1987  0.0005  0.0274  0.0180  0.0000  0.0000  0.0000  0.0000  0.0000 </r>
        <r>  0.1987  0.0005  0.0274  0.0180  0.0000  0.0000  0.0000  0.0000  0.0000 </r>
       </set>
       <set comment="band 3">
        <r>  0.0002  0.0644  0.0479  0.0446  0.0000  0.0000  0.0000  0.0000  0.0000 </r>
        <r>  0.0002  0.0644  0.0479  0.0446  0.0000  0.0000  0.0000  0.0000  0.0000 </r>
       </set>
       <set comment="band 4">
        <r>  0.0009  0.0738  0.0344  0.0557  0.0000  0.0000  0.0000  0.0000  0.0000 </r>
        <r>  0.0009  0.0738  0.0344  0.0557  0.0000  0.0000  0.0000  0.0000  0.0000 </r>
       </set>
       <set comment="band 5">
        <r>  0.0223  0.0551  0.0167  0.0134  0.0000  0.0000  0.0000  0.0000  0.0000 </r>
        <r>  0.0223  0.0551  0.0167  0.0134  0.0000  0.0000  0.0000  0.0000  0.0000 </r>
       </set>
       <set comment="band 6">
        <r>  0.0009  0.0849  0.0001  0.0012  0.0000  0.0000  0.0000  0.0000  0.0000 </r>
        <r>  0.0009  0.0849  0.0001  0.0012  0.0000  0.0000  0.0000  0.0000  0.0000 </r>
       </set>
       <set comment="band 7">
        <r>  0.0446  0.0282  0.0373  0.0321  0.0000  0.0000  0.0000  0.0000  0.0000 </r>
        <r>  0.0446  0.0282  0.0373  0.0321  0.0000  0.0000  0.0000  0.0000  0.0000 </r>
       </set>
       <set comment="band 8">
        <r>  0.0553  0.0016  0.0528  0.0582  0.0000  0.0000  0.0000  0.0000  0.0000 </r>
        <r>  0.0553  0.0016  0.0528  0.0582  0.0000  0.0000  0.0000  0.0000  0.0000 </r>
       </set>
      </set>
      <set comment="kpoint 749">
       <set comment="band 1">
        <r>  0.2030  0.0000  0.0283  0.0129  0.0000  0.0000  0.0000  0.0000  0.0000 </r>
        <r>  0.2030  0.0000  0.0283  0.0129  0.0000  0.0000  0.0000  0.0000  0.0000 </r>
       </set>
       <set comment="band 2">
        <r>  0.2030  0.0000  0.0283  0.0129  0.0000  0.0000  0.0000  0.0000  0.0000 </r>
        <r>  0.2030  0.0000  0.0283  0.0129  0.0000  0.0000  0.0000  0.0000  0.0000 </r>
       </set>
       <set comment="band 3">
        <r>  0.0007  0.0704  0.0332  0.0578  0.0000  0.0000  0.0000  0.0000  0.0000 </r>
        <r>  0.0007  0.0704  0.0332  0.0578  0.0000  0.0000  0.0000  0.0000  0.0000 </r>
       </set>
       <set comment="band 4">
        <r>  0.0007  0.0704  0.0332  0.0578  0.0000  0.0000  0.0000  0.0000  0.0000 </r>
        <r>  0.0007  0.0704  0.0332  0.0578  0.0000  0.0000  0.0000  0.0000  0.0000 </r>
       </set>
       <set comment="band 5">
        <r>  0.0271  0.0463  0.0184  0.0184  0.0000  0.0000  0.0000  0.0000  0.0000 </r>
        <r>  0.0271  0.0463  0.0184  0.0184  0.0000  0.0000  0.0000  0.0000  0.0000 </r>
       </set>
       <set comment="band 6">
        <r>  0.0271  0.0463  0.0184  0.0184  0.0000  0.0000  0.0000  0.0000  0.0000 </r>
        <r>  0.0271  0.0463  0.0184  0.0184  0.0000  0.0000  0.0000  0.0000  0.0000 </r>
       </set>
       <set comment="band 7">
        <r>  0.0343  0.0390  0.0357  0.0328  0.0000  0.0000  0.0000  0.0000  0.0000 </r>
        <r>  0.0343  0.0390  0.0357  0.0328  0.0000  0.0000  0.0000  0.0000  0.0000 </r>
       </set>
       <set comment="band 8">
        <r>  0.0343  0.0390  0.0357  0.0328  0.0000  0.0000  0.0000  0.0000  0.0000 </r>
        <r>  0.0343  0.0390  0.0357  0.0328  0.0000  0.0000  0.0000  0.0000  0.0000 </r>
       </set>
      </set>
      <set comment="kpoint 750">
       <set comment="band 1">
        <r>  0.2071  0.0004  0.0221  0.0140  0.0000  0.0000  0.0000  0.0000  0.0000 </r>
        <r>  0.2071  0.0004  0.0221  0.0140  0.0000  0.0000  0.0000  0.0000  0.0000 </r>
       </set>
       <set comment="band 2">
        <r>  0.1995  0.0003  0.0237  0.0220  0.0000  0.0000  0.0000  0.0000  0.0000 </r>
        <r>  0.1995  0.0003  0.0237  0.0220  0.0000  0.0000  0.0000  0.0000  0.0000 </r>
       </set>
       <set comment="band 3">
        <r>  0.0010  0.0645  0.0371  0.0556  0.0000  0.0000  0.0000  0.0000  0.0000 </r>
        <r>  0.0010  0.0645  0.0371  0.0556  0.0000  0.0000  0.0000  0.0000  0.0000 </r>
       </set>
       <set comment="band 4">
        <r>  0.0002  0.0736  0.0467  0.0430  0.0000  0.0000  0.0000  0.0000  0.0000 </r>
        <r>  0.0002  0.0736  0.0467  0.0430  0.0000  0.0000  0.0000  0.0000  0.0000 </r>
       </set>
       <set comment="band 5">
        <r>  0.0010  0.0821  0.0005  0.0005  0.0000  0.0000  0.0000  0.0000  0.0000 </r>
        <r>  0.0010  0.0821  0.0005  0.0005  0.0000  0.0000  0.0000  0.0000  0.0000 </r>
       </set>
       <set comment="band 6">
        <r>  0.0184  0.0589  0.0150  0.0175  0.0000  0.0000  0.0000  0.0000  0.0000 </r>
        <r>  0.0184  0.0589  0.0150  0.0175  0.0000  0.0000  0.0000  0.0000  0.0000 </r>
       </set>
       <set comment="band 7">
        <r>  0.0655  0.0016  0.0467  0.0522  0.0000  0.0000  0.0000  0.0000  0.0000 </r>
        <r>  0.0655  0.0016  0.0467  0.0522  0.0000  0.0000  0.0000  0.0000  0.0000 </r>
       </set>
       <set comment="band 8">
        <r>  0.0381  0.0271  0.0448  0.0348  0.0000  0.0000  0.0000  0.0000  0.0000 </r>
        <r>  0.0381  0.0271  0.0448  0.0348  0.0000  0.0000  0.0000  0.0000  0.0000 </r>
       </set>
      </set>
      <set comment="kpoint 751">
       <set comment="band 1">
        <r>  0.2069  0.0002  0.0187  0.0187  0.0000  0.0000  0.0000  0.0000  0.0000 </r>
        <r>  0.2069  0.0002  0.0187  0.0187  0.0000  0.0000  0.0000  0.0000  0.0000 </r>
       </set>
       <set comment="band 2">
        <r>  0.2008  0.0002  0.0221  0.0221  0.0000  0.0000  0.0000  0.0000  0.0000 </r>
        <r>  0.2008  0.0002  0.0221  0.0221  0.0000  0.0000  0.0000  0.0000  0.0000 </r>
       </set>
       <set comment="band 3">
        <r>  0.0003  0.0656  0.0460  0.0460  0.0000  0.0000  0.0000  0.0000  0.0000 </r>
        <r>  0.0003  0.0656  0.0460  0.0460  0.0000  0.0000  0.0000  0.0000  0.0000 </r>
       </set>
       <set comment="band 4">
        <r>  0.0002  0.0723  0.0450  0.0450  0.0000  0.0000  0.0000  0.0000  0.0000 </r>
        <r>  0.0002  0.0723  0.0450  0.0450  0.0000  0.0000  0.0000  0.0000  0.0000 </r>
       </set>
       <set comment="band 5">
        <r>  0.0028  0.0804  0.0026  0.0026  0.0000  0.0000  0.0000  0.0000  0.0000 </r>
        <r>  0.0028  0.0804  0.0026  0.0026  0.0000  0.0000  0.0000  0.0000  0.0000 </r>
       </set>
       <set comment="band 6">
        <r>  0.0143  0.0676  0.0111  0.0111  0.0000  0.0000  0.0000  0.0000  0.0000 </r>
        <r>  0.0143  0.0676  0.0111  0.0111  0.0000  0.0000  0.0000  0.0000  0.0000 </r>
       </set>
       <set comment="band 7">
        <r>  0.0509  0.0185  0.0397  0.0397  0.0000  0.0000  0.0000  0.0000  0.0000 </r>
        <r>  0.0509  0.0185  0.0397  0.0397  0.0000  0.0000  0.0000  0.0000  0.0000 </r>
       </set>
       <set comment="band 8">
        <r>  0.0551  0.0039  0.0524  0.0524  0.0000  0.0000  0.0000  0.0000  0.0000 </r>
        <r>  0.0551  0.0039  0.0524  0.0524  0.0000  0.0000  0.0000  0.0000  0.0000 </r>
       </set>
      </set>
      <set comment="kpoint 752">
       <set comment="band 1">
        <r>  0.2041  0.0000  0.0231  0.0178  0.0000  0.0000  0.0000  0.0000  0.0000 </r>
        <r>  0.2041  0.0000  0.0231  0.0178  0.0000  0.0000  0.0000  0.0000  0.0000 </r>
       </set>
       <set comment="band 2">
        <r>  0.2041  0.0000  0.0231  0.0178  0.0000  0.0000  0.0000  0.0000  0.0000 </r>
        <r>  0.2041  0.0000  0.0231  0.0178  0.0000  0.0000  0.0000  0.0000  0.0000 </r>
       </set>
       <set comment="band 3">
        <r>  0.0001  0.0691  0.0413  0.0496  0.0000  0.0000  0.0000  0.0000  0.0000 </r>
        <r>  0.0001  0.0691  0.0413  0.0496  0.0000  0.0000  0.0000  0.0000  0.0000 </r>
       </set>
       <set comment="band 4">
        <r>  0.0001  0.0691  0.0413  0.0496  0.0000  0.0000  0.0000  0.0000  0.0000 </r>
        <r>  0.0001  0.0691  0.0413  0.0496  0.0000  0.0000  0.0000  0.0000  0.0000 </r>
       </set>
       <set comment="band 5">
        <r>  0.0122  0.0682  0.0083  0.0101  0.0000  0.0000  0.0000  0.0000  0.0000 </r>
        <r>  0.0122  0.0682  0.0083  0.0101  0.0000  0.0000  0.0000  0.0000  0.0000 </r>
       </set>
       <set comment="band 6">
        <r>  0.0122  0.0682  0.0083  0.0101  0.0000  0.0000  0.0000  0.0000  0.0000 </r>
        <r>  0.0122  0.0682  0.0083  0.0101  0.0000  0.0000  0.0000  0.0000  0.0000 </r>
       </set>
       <set comment="band 7">
        <r>  0.0494  0.0172  0.0449  0.0422  0.0000  0.0000  0.0000  0.0000  0.0000 </r>
        <r>  0.0494  0.0172  0.0449  0.0422  0.0000  0.0000  0.0000  0.0000  0.0000 </r>
       </set>
       <set comment="band 8">
        <r>  0.0494  0.0172  0.0449  0.0422  0.0000  0.0000  0.0000  0.0000  0.0000 </r>
        <r>  0.0494  0.0172  0.0449  0.0422  0.0000  0.0000  0.0000  0.0000  0.0000 </r>
       </set>
      </set>
     </set>
    </set>
   </array>
  </projected>
 </calculation>
 <structure name="finalpos" >
  <crystal>
   <varray name="basis" >
    <v>       0.00000000       2.73429199       2.73429199 </v>
    <v>       2.73429199       0.00000000       2.73429199 </v>
    <v>       2.73429199       2.73429199       0.00000000 </v>
   </varray>
   <i name="volume">     40.88506259 </i>
   <varray name="rec_basis" >
    <v>      -0.18286269       0.18286269       0.18286269 </v>
    <v>       0.18286269      -0.18286269       0.18286269 </v>
    <v>       0.18286269       0.18286269      -0.18286269 </v>
   </varray>
  </crystal>
  <varray name="positions" >
   <v>       0.00000000       0.00000000       0.00000000 </v>
   <v>       0.25000000       0.25000000       0.25000000 </v>
  </varray>
 </structure>
</modeling>
