   2   2   0   0
  0.2044131E+02  0.3866796E-09  0.3866796E-09  0.3866796E-09  0.5000000E-15
  1.000000000000000E-004
  CAR 
 Si FCC                                  
     16.64184798     -7.28582832  301      5.79588096      1.00000000
     -7.286  0.0000E+00  0.0000E+00
     -7.206  0.0000E+00  0.0000E+00
     -7.126  0.0000E+00  0.0000E+00
     -7.047  0.0000E+00  0.0000E+00
     -6.967  0.0000E+00  0.0000E+00
     -6.887  0.0000E+00  0.0000E+00
     -6.807  0.0000E+00  0.0000E+00
     -6.728  0.0000E+00  0.0000E+00
     -6.648  0.0000E+00  0.0000E+00
     -6.568  0.0000E+00  0.0000E+00
     -6.488  0.0000E+00  0.0000E+00
     -6.408  0.0000E+00  0.0000E+00
     -6.329  0.9562E-13  0.7626E-14
     -6.249  0.2097E-05  0.1673E-06
     -6.169  0.2272E-03  0.1828E-04
     -6.089  0.3752E-03  0.4821E-04
     -6.010  0.2830E-02  0.2739E-03
     -5.930  0.3280E-03  0.3001E-03
     -5.850  0.1881E-02  0.4501E-03
     -5.770  0.1288E-02  0.5528E-03
     -5.691  0.6640E-02  0.1082E-02
     -5.611  0.1224E-02  0.1180E-02
     -5.531  0.3391E-03  0.1207E-02
     -5.451  0.1208E-02  0.1303E-02
     -5.372  0.6559E-02  0.1826E-02
     -5.292  0.5423E-02  0.2259E-02
     -5.212  0.1370E-02  0.2368E-02
     -5.132  0.4685E-02  0.2742E-02
     -5.053  0.5482E-02  0.3179E-02
     -4.973  0.2517E-02  0.3380E-02
     -4.893  0.5765E-03  0.3426E-02
     -4.813  0.2457E-02  0.3622E-02
     -4.734  0.1336E-01  0.4688E-02
     -4.654  0.5959E-02  0.5163E-02
     -4.574  0.3294E-03  0.5189E-02
     -4.494  0.7895E-02  0.5819E-02
     -4.415  0.5188E-02  0.6233E-02
     -4.335  0.6552E-02  0.6756E-02
     -4.255  0.3072E-03  0.6780E-02
     -4.175  0.2623E-02  0.6989E-02
     -4.095  0.8668E-02  0.7681E-02
     -4.016  0.1868E-01  0.9170E-02
     -3.936  0.6361E-02  0.9677E-02
     -3.856  0.5572E-02  0.1012E-01
     -3.776  0.1313E-01  0.1117E-01
     -3.697  0.1693E-02  0.1130E-01
     -3.617  0.4653E-02  0.1168E-01
     -3.537  0.9139E-02  0.1240E-01
     -3.457  0.6162E-02  0.1290E-01
     -3.378  0.1556E-01  0.1414E-01
     -3.298  0.9442E-02  0.1489E-01
     -3.218  0.1446E-02  0.1501E-01
     -3.138  0.1112E-01  0.1589E-01
     -3.059  0.5550E-02  0.1634E-01
     -2.979  0.1801E-03  0.1635E-01
     -2.899  0.5637E-02  0.1680E-01
     -2.819  0.3379E-02  0.1707E-01
     -2.740  0.3626E-02  0.1736E-01
     -2.660  0.1691E-01  0.1871E-01
     -2.580  0.5961E-02  0.1918E-01
     -2.500  0.4746E-03  0.1922E-01
     -2.421  0.6088E-05  0.1922E-01
     -2.341  0.2437E-02  0.1941E-01
     -2.261  0.5657E-03  0.1946E-01
     -2.181  0.1101E-04  0.1946E-01
     -2.101  0.2232E-02  0.1964E-01
     -2.022  0.5698E-02  0.2009E-01
     -1.942  0.5536E-02  0.2053E-01
     -1.862  0.6355E-04  0.2054E-01
     -1.782  0.3280E-03  0.2057E-01
     -1.703  0.2664E-02  0.2078E-01
     -1.623  0.1726E-04  0.2078E-01
     -1.543  0.5000E-12  0.2078E-01
     -1.463  0.5137E-05  0.2078E-01
     -1.384  0.7203E-02  0.2135E-01
     -1.304  0.2237E-01  0.2314E-01
     -1.224  0.4349E-02  0.2349E-01
     -1.144  0.4324E-02  0.2383E-01
     -1.065  0.1442E-01  0.2498E-01
     -0.985  0.1349E-01  0.2606E-01
     -0.905  0.3508E-02  0.2634E-01
     -0.825  0.1186E-01  0.2728E-01
     -0.746  0.2034E-01  0.2891E-01
     -0.666  0.1972E-02  0.2906E-01
     -0.586  0.7897E-02  0.2969E-01
     -0.506  0.3899E-02  0.3000E-01
     -0.427  0.1156E-01  0.3093E-01
     -0.347  0.6862E-03  0.3098E-01
     -0.267  0.6934E-04  0.3099E-01
     -0.187  0.1066E-01  0.3184E-01
     -0.108  0.3436E-02  0.3211E-01
     -0.028  0.8488E-02  0.3279E-01
      0.052  0.1422E-02  0.3290E-01
      0.132  0.3434E-02  0.3317E-01
      0.212  0.4233E-02  0.3351E-01
      0.291  0.4373E-02  0.3386E-01
      0.371  0.6336E-02  0.3437E-01
      0.451  0.5689E-02  0.3482E-01
      0.531  0.5676E-05  0.3482E-01
      0.610  0.1957E-13  0.3482E-01
      0.690  0.3341E-18  0.3482E-01
      0.770  0.2178E-07  0.3482E-01
      0.850  0.3076E-02  0.3507E-01
      0.929  0.1691E-01  0.3641E-01
      1.009  0.7041E-04  0.3642E-01
      1.089  0.1826E-06  0.3642E-01
      1.169  0.1432E-02  0.3653E-01
      1.248  0.3010E-02  0.3677E-01
      1.328  0.1074E-03  0.3678E-01
      1.408  0.5684E-02  0.3724E-01
      1.488  0.1366E-01  0.3833E-01
      1.567  0.3900E-02  0.3864E-01
      1.647  0.5287E-02  0.3906E-01
      1.727  0.1328E-01  0.4012E-01
      1.807  0.2226E-01  0.4189E-01
      1.886  0.1293E-01  0.4292E-01
      1.966  0.7302E-02  0.4351E-01
      2.046  0.1705E-01  0.4487E-01
      2.126  0.9144E-03  0.4494E-01
      2.205  0.8397E-03  0.4501E-01
      2.285  0.2680E-01  0.4714E-01
      2.365  0.2580E-02  0.4735E-01
      2.445  0.1360E-01  0.4844E-01
      2.525  0.1183E-01  0.4938E-01
      2.604  0.4668E-02  0.4975E-01
      2.684  0.8802E-02  0.5045E-01
      2.764  0.2621E-01  0.5254E-01
      2.844  0.1879E-01  0.5404E-01
      2.923  0.9186E-02  0.5478E-01
      3.003  0.2019E-01  0.5639E-01
      3.083  0.1276E-01  0.5740E-01
      3.163  0.4217E-02  0.5774E-01
      3.242  0.2612E-01  0.5982E-01
      3.322  0.1399E-01  0.6094E-01
      3.402  0.9011E-03  0.6101E-01
      3.482  0.1955E-01  0.6257E-01
      3.561  0.7973E-02  0.6321E-01
      3.641  0.2197E-01  0.6496E-01
      3.721  0.2045E-01  0.6659E-01
      3.801  0.3592E-02  0.6688E-01
      3.880  0.2007E-01  0.6848E-01
      3.960  0.2087E-01  0.7014E-01
      4.040  0.8016E-02  0.7078E-01
      4.120  0.1331E-03  0.7079E-01
      4.199  0.1142E-01  0.7170E-01
      4.279  0.6455E-02  0.7222E-01
      4.359  0.2393E-01  0.7412E-01
      4.439  0.1026E-01  0.7494E-01
      4.518  0.8425E-02  0.7561E-01
      4.598  0.2025E-02  0.7578E-01
      4.678  0.1160E-01  0.7670E-01
      4.758  0.1190E-01  0.7765E-01
      4.838  0.8572E-02  0.7833E-01
      4.917  0.7406E-04  0.7834E-01
      4.997  0.3609E-04  0.7834E-01
      5.077  0.6242E-02  0.7884E-01
      5.157  0.6504E-02  0.7936E-01
      5.236  0.2578E-03  0.7938E-01
      5.316  0.1027E-08  0.7938E-01
      5.396  0.4428E-03  0.7942E-01
      5.476  0.6387E-02  0.7992E-01
      5.555  0.1923E-03  0.7994E-01
      5.635  0.6033E-03  0.7999E-01
      5.715  0.1476E-03  0.8000E-01
      5.795  0.1477E-08  0.8000E-01
      5.874  0.0000E+00  0.8000E-01
      5.954  0.0000E+00  0.8000E-01
      6.034  0.0000E+00  0.8000E-01
      6.114  0.8563E-11  0.8000E-01
      6.193  0.3860E-04  0.8000E-01
      6.273  0.1413E-02  0.8012E-01
      6.353  0.4011E-03  0.8015E-01
      6.433  0.1378E-02  0.8026E-01
      6.512  0.6572E-02  0.8078E-01
      6.592  0.7292E-03  0.8084E-01
      6.672  0.1936E-02  0.8099E-01
      6.752  0.7071E-02  0.8156E-01
      6.832  0.1399E-03  0.8157E-01
      6.911  0.5639E-02  0.8202E-01
      6.991  0.1579E-02  0.8215E-01
      7.071  0.1111E-02  0.8223E-01
      7.151  0.1379E-01  0.8333E-01
      7.230  0.1763E-01  0.8474E-01
      7.310  0.2264E-02  0.8492E-01
      7.390  0.3505E-02  0.8520E-01
      7.470  0.1957E-01  0.8676E-01
      7.549  0.1125E-01  0.8766E-01
      7.629  0.8643E-03  0.8773E-01
      7.709  0.1049E-01  0.8856E-01
      7.789  0.2521E-01  0.9057E-01
      7.868  0.2166E-01  0.9230E-01
      7.948  0.1285E-01  0.9333E-01
      8.028  0.2411E-01  0.9525E-01
      8.108  0.6973E-02  0.9581E-01
      8.187  0.2470E-02  0.9600E-01
      8.267  0.3773E-02  0.9630E-01
      8.347  0.3597E-01  0.9917E-01
      8.427  0.8939E-02  0.9989E-01
      8.506  0.7459E-02  0.1005E+00
      8.586  0.5246E-02  0.1009E+00
      8.666  0.1333E-02  0.1010E+00
      8.746  0.1319E-01  0.1021E+00
      8.825  0.9757E-02  0.1028E+00
      8.905  0.1781E-01  0.1043E+00
      8.985  0.4485E-01  0.1078E+00
      9.065  0.2803E-01  0.1101E+00
      9.145  0.9232E-02  0.1108E+00
      9.224  0.1649E-01  0.1121E+00
      9.304  0.2830E-01  0.1144E+00
      9.384  0.2140E-01  0.1161E+00
      9.464  0.1183E-01  0.1170E+00
      9.543  0.3998E-02  0.1173E+00
      9.623  0.1492E-01  0.1185E+00
      9.703  0.1388E-01  0.1196E+00
      9.783  0.1299E-01  0.1207E+00
      9.862  0.1862E-02  0.1208E+00
      9.942  0.1021E-01  0.1216E+00
     10.022  0.1465E-01  0.1228E+00
     10.102  0.1426E-02  0.1229E+00
     10.181  0.1337E-01  0.1240E+00
     10.261  0.1843E-01  0.1255E+00
     10.341  0.2060E-01  0.1271E+00
     10.421  0.1758E-01  0.1285E+00
     10.500  0.9766E-02  0.1293E+00
     10.580  0.8321E-02  0.1299E+00
     10.660  0.1715E-01  0.1313E+00
     10.740  0.3196E-01  0.1339E+00
     10.819  0.1206E-01  0.1348E+00
     10.899  0.1216E-02  0.1349E+00
     10.979  0.8256E-02  0.1356E+00
     11.059  0.1490E-01  0.1368E+00
     11.138  0.1187E-01  0.1377E+00
     11.218  0.3676E-02  0.1380E+00
     11.298  0.5791E-02  0.1385E+00
     11.378  0.4751E-02  0.1389E+00
     11.458  0.5654E-02  0.1393E+00
     11.537  0.2895E-01  0.1416E+00
     11.617  0.5866E-02  0.1421E+00
     11.697  0.1054E-01  0.1429E+00
     11.777  0.3861E-03  0.1429E+00
     11.856  0.1111E-01  0.1438E+00
     11.936  0.1291E-01  0.1449E+00
     12.016  0.1142E-01  0.1458E+00
     12.096  0.5237E-02  0.1462E+00
     12.175  0.7848E-02  0.1468E+00
     12.255  0.8795E-02  0.1475E+00
     12.335  0.2441E-01  0.1495E+00
     12.415  0.1697E-01  0.1508E+00
     12.494  0.1855E-01  0.1523E+00
     12.574  0.8295E-02  0.1530E+00
     12.654  0.6315E-02  0.1535E+00
     12.734  0.1620E-03  0.1535E+00
     12.813  0.3870E-10  0.1535E+00
     12.893  0.0000E+00  0.1535E+00
     12.973  0.1795E-12  0.1535E+00
     13.053  0.1785E-04  0.1535E+00
     13.132  0.6505E-02  0.1540E+00
     13.212  0.1501E-02  0.1541E+00
     13.292  0.6645E-03  0.1542E+00
     13.372  0.1607E-01  0.1555E+00
     13.451  0.4154E-02  0.1558E+00
     13.531  0.1728E-03  0.1558E+00
     13.611  0.4879E-02  0.1562E+00
     13.691  0.1576E-01  0.1574E+00
     13.771  0.4258E-03  0.1575E+00
     13.850  0.1553E-09  0.1575E+00
     13.930  0.2931E-05  0.1575E+00
     14.010  0.8340E-02  0.1581E+00
     14.090  0.6701E-02  0.1587E+00
     14.169  0.5158E-03  0.1587E+00
     14.249  0.3668E-02  0.1590E+00
     14.329  0.6245E-02  0.1595E+00
     14.409  0.4611E-02  0.1599E+00
     14.488  0.7221E-05  0.1599E+00
     14.568  0.3247E-13  0.1599E+00
     14.648  0.0000E+00  0.1599E+00
     14.728  0.0000E+00  0.1599E+00
     14.807  0.0000E+00  0.1599E+00
     14.887  0.0000E+00  0.1599E+00
     14.967  0.0000E+00  0.1599E+00
     15.047  0.0000E+00  0.1599E+00
     15.126  0.0000E+00  0.1599E+00
     15.206  0.0000E+00  0.1599E+00
     15.286  0.0000E+00  0.1599E+00
     15.366  0.0000E+00  0.1599E+00
     15.445  0.2214E-09  0.1599E+00
     15.525  0.1291E-03  0.1599E+00
     15.605  0.1363E-02  0.1600E+00
     15.685  0.1258E-04  0.1600E+00
     15.764  0.5737E-12  0.1600E+00
     15.844  0.0000E+00  0.1600E+00
     15.924  0.0000E+00  0.1600E+00
     16.004  0.0000E+00  0.1600E+00
     16.084  0.0000E+00  0.1600E+00
     16.163  0.0000E+00  0.1600E+00
     16.243  0.0000E+00  0.1600E+00
     16.323  0.0000E+00  0.1600E+00
     16.403  0.0000E+00  0.1600E+00
     16.482  0.0000E+00  0.1600E+00
     16.562  0.0000E+00  0.1600E+00
     16.642  0.0000E+00  0.1600E+00
