    2    2  100    1
  0.2044131E+02  0.3866796E-09  0.3866796E-09  0.3866796E-09  0.5000000E-15
  1.000000000000000E-004
  CAR 
 Si FCC                                  
      8     47      8
 
  0.0000000E+00  0.0000000E+00  0.0000000E+00  0.1000000E-02
      1         -6.198207   1.000000
      2          5.616973   1.000000
      3          5.616973   1.000000
      4          5.616973   1.000000
      5          8.173894   0.000000
      6          8.173895   0.000000
      7          8.173895   0.000000
      8          8.751777   0.000000
 
  0.1000000E+00  0.0000000E+00  0.0000000E+00  0.8000000E-02
      1         -6.069637   1.000000
      2          4.474941   1.000000
      3          5.423178   1.000000
      4          5.423179   1.000000
      5          8.139995   0.000000
      6          8.459660   0.000000
      7          8.459660   0.000000
      8          9.721675   0.000000
 
  0.2000000E+00  0.0000000E+00  0.0000000E+00  0.8000000E-02
      1         -5.690188   1.000000
      2          2.635026   1.000000
      3          5.049408   1.000000
      4          5.049408   1.000000
      5          7.769848   0.000000
      6          8.961535   0.000000
      7          8.961535   0.000000
      8         11.496222   0.000000
 
  0.3000000E+00  0.0000000E+00  0.0000000E+00  0.8000000E-02
      1         -5.086794   1.000000
      2          0.876899   1.000000
      3          4.719298   1.000000
      4          4.719298   1.000000
      5          7.406228   0.000000
      6          9.142067   0.000000
      7          9.142067   0.000000
      8         13.118099   0.000000
 
  0.4000000E+00  0.0000000E+00  0.0000000E+00  0.8000000E-02
      1         -4.356986   1.000000
      2         -0.571410   1.000000
      3          4.509429   1.000000
      4          4.509429   1.000000
      5          7.166318   0.000000
      6          9.037606   0.000000
      7          9.037606   0.000000
      8         13.422478   0.000000
 
  0.5000000E+00  0.0000000E+00  0.0000000E+00  0.4000000E-02
      1         -3.919337   1.000000
      2         -1.251900   1.000000
      3          4.438510   1.000000
      4          4.438510   1.000000
      5          7.083997   0.000000
      6          8.966460   0.000000
      7          8.966460   0.000000
      8         13.319503   0.000000
 
  0.1000000E+00  0.1000000E+00  0.0000000E+00  0.6000000E-02
      1         -6.026480   1.000000
      2          4.661442   1.000000
      3          5.055464   1.000000
      4          5.055464   1.000000
      5          7.802151   0.000000
      6          8.946299   0.000000
      7          8.946299   0.000000
      8          9.606300   0.000000
 
  0.2000000E+00  0.1000000E+00  0.0000000E+00  0.2400000E-01
      1         -5.729428   1.000000
      2          3.175477   1.000000
      3          4.628935   1.000000
      4          4.786950   1.000000
      5          7.856411   0.000000
      6          8.955636   0.000000
      7          9.590060   0.000000
      8         10.530138   0.000000
 
  0.3000000E+00  0.1000000E+00  0.0000000E+00  0.2400000E-01
      1         -5.196117   1.000000
      2          1.444700   1.000000
      3          4.314656   1.000000
      4          4.359106   1.000000
      5          7.964557   0.000000
      6          8.958874   0.000000
      7          9.876949   0.000000
      8         10.919084   0.000000
 
  0.4000000E+00  0.1000000E+00  0.0000000E+00  0.2400000E-01
      1         -4.487571   1.000000
      2         -0.099486   1.000000
      3          3.953947   1.000000
      4          4.168199   1.000000
      5          7.807759   0.000000
      6          8.946862   0.000000
      7          9.713267   0.000000
      8         11.963927   0.000000
 
  0.5000000E+00  0.1000000E+00  0.0000000E+00  0.2400000E-01
      1         -3.864602   1.000000
      2         -1.112536   1.000000
      3          3.669411   1.000000
      4          4.198887   1.000000
      5          7.714388   0.000000
      6          8.927577   0.000000
      7          9.456434   0.000000
      8         13.357254   0.000000
 
 -0.4000000E+00  0.1000000E+00  0.0000000E+00  0.2400000E-01
      1         -4.026593   1.000000
      2         -0.870289   1.000000
      3          3.545454   1.000000
      4          4.393713   1.000000
      5          7.769155   0.000000
      6          9.061808   0.000000
      7          9.303481   0.000000
      8         13.608870   0.000000
 
 -0.3000000E+00  0.1000000E+00  0.0000000E+00  0.2400000E-01
      1         -4.737372   1.000000
      2          0.384850   1.000000
      3          3.607672   1.000000
      4          4.721576   1.000000
      5          7.968544   0.000000
      6          9.226429   0.000000
      7          9.305272   0.000000
      8         12.548098   0.000000
 
 -0.2000000E+00  0.1000000E+00  0.0000000E+00  0.2400000E-01
      1         -5.399586   1.000000
      2          2.004388   1.000000
      3          3.882976   1.000000
      4          5.120103   1.000000
      5          8.276043   0.000000
      6          8.973615   0.000000
      7          9.300687   0.000000
      8         11.487851   0.000000
 
 -0.1000000E+00  0.1000000E+00  0.0000000E+00  0.1200000E-01
      1         -5.856942   1.000000
      2          3.590140   1.000000
      3          4.485851   1.000000
      4          5.441596   1.000000
      5          8.527710   0.000000
      6          8.528800   0.000000
      7          8.706704   0.000000
      8         10.667116   0.000000
 
  0.2000000E+00  0.2000000E+00  0.0000000E+00  0.6000000E-02
      1         -5.515125   1.000000
      2          2.982415   1.000000
      3          4.162573   1.000000
      4          4.162573   1.000000
      5          7.093285   0.000000
      6          9.470315   0.000000
      7         10.458270   0.000000
      8         10.458270   0.000000
 
  0.3000000E+00  0.2000000E+00  0.0000000E+00  0.2400000E-01
      1         -5.057927   1.000000
      2          1.759986   1.000000
      3          3.660092   1.000000
      4          3.820233   1.000000
      5          7.189157   0.000000
      6          9.061918   0.000000
      7         10.708457   0.000000
      8         11.046568   0.000000
 
  0.4000000E+00  0.2000000E+00  0.0000000E+00  0.2400000E-01
      1         -4.396104   1.000000
      2          0.353448   1.000000
      3          3.040073   1.000000
      4          3.662407   1.000000
      5          7.403967   0.000000
      6          9.686817   0.000000
      7         10.477804   0.000000
      8         11.013119   0.000000
 
  0.5000000E+00  0.2000000E+00  0.0000000E+00  0.2400000E-01
      1         -3.682988   1.000000
      2         -0.803014   1.000000
      3          2.538669   1.000000
      4          3.704366   1.000000
      5          7.467681   0.000000
      6         10.258887   0.000000
      7         10.695772   0.000000
      8         11.212685   0.000000
 
 -0.4000000E+00  0.2000000E+00  0.0000000E+00  0.2400000E-01
      1         -3.535198   1.000000
      2         -1.004965   1.000000
      3          2.247432   1.000000
      4          3.937060   1.000000
      5          7.675471   0.000000
      6         10.164047   0.000000
      7         10.397538   0.000000
      8         13.111910   0.000000
 
 -0.3000000E+00  0.2000000E+00  0.0000000E+00  0.2400000E-01
      1         -4.171772   1.000000
      2         -0.043043   1.000000
      3          2.232788   1.000000
      4          4.325770   1.000000
      5          8.057558   0.000000
      6         10.121563   0.000000
      7         10.178926   0.000000
      8         12.235004   0.000000
 
 -0.2000000E+00  0.2000000E+00  0.0000000E+00  0.1200000E-01
      1         -4.874557   1.000000
      2          1.170389   1.000000
      3          2.683480   1.000000
      4          4.785929   1.000000
      5          8.468075   0.000000
      6          9.582656   0.000000
      7          9.886744   0.000000
      8         11.274253   0.000000
 
  0.3000000E+00  0.3000000E+00  0.0000000E+00  0.6000000E-02
      1         -4.676708   1.000000
      2          1.212883   1.000000
      3          3.434608   1.000000
      4          3.434608   1.000000
      5          6.506433   0.000000
      6          8.053273   0.000000
      7         12.188548   0.000000
      8         12.188548   0.000000
 
  0.4000000E+00  0.3000000E+00  0.0000000E+00  0.2400000E-01
      1         -4.075451   1.000000
      2          0.224240   1.000000
      3          2.823312   1.000000
      4          3.233013   1.000000
      5          6.693852   0.000000
      6          7.882680   0.000000
      7         12.472606   0.000000
      8         12.613002   0.000000
 
  0.5000000E+00  0.3000000E+00  0.0000000E+00  0.2400000E-01
      1         -3.341571   1.000000
      2         -0.761472   1.000000
      3          2.013495   1.000000
      4          3.238861   1.000000
      5          6.875129   0.000000
      6          8.993334   0.000000
      7         12.286981   0.000000
      8         12.374860   0.000000
 
 -0.4000000E+00  0.3000000E+00  0.0000000E+00  0.2400000E-01
      1         -2.935546   1.000000
      2         -1.223441   1.000000
      3          1.472817   1.000000
      4          3.449709   1.000000
      5          7.103165   0.000000
      6         10.778129   0.000000
      7         11.979437   0.000000
      8         12.126761   0.000000
 
 -0.3000000E+00  0.3000000E+00  0.0000000E+00  0.1200000E-01
      1         -3.461138   1.000000
      2         -0.645754   1.000000
      3          1.448366   1.000000
      4          3.837696   1.000000
      5          7.535539   0.000000
      6         11.311208   0.000000
      7         11.622293   0.000000
      8         12.344472   0.000000
 
  0.4000000E+00  0.4000000E+00  0.0000000E+00  0.6000000E-02
      1         -3.534989   1.000000
      2         -0.520241   1.000000
      3          2.977617   1.000000
      4          2.977617   1.000000
      5          6.234771   0.000000
      6          6.966398   0.000000
      7         14.017913   0.000000
      8         14.017913   0.000000
 
  0.5000000E+00  0.4000000E+00  0.0000000E+00  0.2400000E-01
      1         -2.820327   1.000000
      2         -1.346429   1.000000
      3          2.408614   1.000000
      4          2.929647   1.000000
      5          6.470576   0.000000
      6          7.215902   0.000000
      7         14.267224   0.000000
      8         14.344202   0.000000
 
 -0.4000000E+00  0.4000000E+00  0.0000000E+00  0.1200000E-01
      1         -2.359555   1.000000
      2         -1.756331   1.000000
      3          1.647604   1.000000
      4          3.093505   1.000000
      5          6.680686   0.000000
      6          8.765886   0.000000
      7         13.614243   0.000000
      8         14.189485   0.000000
 
  0.5000000E+00  0.5000000E+00  0.0000000E+00  0.3000000E-02
      1         -2.129462   1.000000
      2         -2.129462   1.000000
      3          2.822719   1.000000
      4          2.822719   1.000000
      5          6.368515   0.000000
      6          6.368515   0.000000
      7         15.554226   0.000000
      8         15.554226   0.000000
 
  0.3000000E+00  0.2000000E+00  0.1000000E+00  0.2400000E-01
      1         -5.353032   1.000000
      2          2.255394   1.000000
      3          3.584012   1.000000
      4          4.661589   1.000000
      5          7.962024   0.000000
      6          9.266386   0.000000
      7         10.215314   0.000000
      8         10.236056   0.000000
 
  0.4000000E+00  0.2000000E+00  0.1000000E+00  0.4800000E-01
      1         -4.753460   1.000000
      2          0.872940   1.000000
      3          3.000315   1.000000
      4          4.295919   1.000000
      5          8.302082   0.000000
      6          9.184093   0.000000
      7         10.308885   0.000000
      8         10.701533   0.000000
 
  0.5000000E+00  0.2000000E+00  0.1000000E+00  0.4800000E-01
      1         -4.023487   1.000000
      2         -0.460086   1.000000
      3          2.766482   1.000000
      4          3.955067   1.000000
      5          8.340513   0.000000
      6          8.894756   0.000000
      7         10.628504   0.000000
      8         11.629827   0.000000
 
 -0.4000000E+00  0.2000000E+00  0.1000000E+00  0.2400000E-01
      1         -3.578050   1.000000
      2         -1.119748   1.000000
      3          2.705227   1.000000
      4          3.821160   1.000000
      5          8.353146   0.000000
      6          8.731142   0.000000
      7         10.591625   0.000000
      8         13.348010   0.000000
 
  0.4000000E+00  0.3000000E+00  0.1000000E+00  0.2400000E-01
      1         -4.530321   1.000000
      2          0.866883   1.000000
      3          2.871110   1.000000
      4          3.575980   1.000000
      5          7.403674   0.000000
      6          8.683539   0.000000
      7         10.757797   0.000000
      8         12.081280   0.000000
 
  0.5000000E+00  0.3000000E+00  0.1000000E+00  0.4800000E-01
      1         -3.825034   1.000000
      2         -0.213449   1.000000
      3          2.262490   1.000000
      4          3.256702   1.000000
      5          7.784181   0.000000
      6          9.369890   0.000000
      7         10.383743   0.000000
      8         12.472761   0.000000
 
 -0.4000000E+00  0.3000000E+00  0.1000000E+00  0.4800000E-01
      1         -3.192133   1.000000
      2         -1.053475   1.000000
      3          1.860272   1.000000
      4          3.202451   1.000000
      5          7.964017   0.000000
      6          9.956612   0.000000
      7         11.079793   0.000000
      8         12.400848   0.000000
 
 -0.3000000E+00  0.3000000E+00  0.1000000E+00  0.4800000E-01
      1         -3.388449   1.000000
      2         -0.800990   1.000000
      3          1.715643   1.000000
      4          3.436267   1.000000
      5          8.297557   0.000000
      6          9.702146   0.000000
      7         11.509047   0.000000
      8         12.285987   0.000000
 
 -0.2000000E+00  0.3000000E+00  0.1000000E+00  0.2400000E-01
      1         -4.106740   1.000000
      2          0.127970   1.000000
      3          2.013683   1.000000
      4          3.865419   1.000000
      5          8.776487   0.000000
      6          9.255026   0.000000
      7         10.302038   0.000000
      8         11.809790   0.000000
 
  0.5000000E+00  0.4000000E+00  0.1000000E+00  0.2400000E-01
      1         -3.420039   1.000000
      2         -0.605482   1.000000
      3          2.468487   1.000000
      4          2.789630   1.000000
      5          7.120201   0.000000
      6          7.713441   0.000000
      7         12.290745   0.000000
      8         14.004085   0.000000
 
 -0.4000000E+00  0.4000000E+00  0.1000000E+00  0.4800000E-01
      1         -2.698657   1.000000
      2         -1.366257   1.000000
      3          1.786627   1.000000
      4          2.700514   1.000000
      5          7.470418   0.000000
      6          8.895056   0.000000
      7         11.896461   0.000000
      8         13.652416   0.000000
 
 -0.3000000E+00  0.4000000E+00  0.1000000E+00  0.2400000E-01
      1         -2.707866   1.000000
      2         -1.336772   1.000000
      3          1.381433   1.000000
      4          2.963994   1.000000
      5          7.791817   0.000000
      6         10.712607   0.000000
      7         11.494553   0.000000
      8         11.833051   0.000000
 
 -0.4000000E+00  0.5000000E+00  0.1000000E+00  0.1200000E-01
      1         -2.079162   1.000000
      2         -2.079162   1.000000
      3          2.427565   1.000000
      4          2.427565   1.000000
      5          7.203213   0.000000
      6          7.203213   0.000000
      7         14.004182   0.000000
      8         14.004183   0.000000
 
 -0.4000000E+00  0.4000000E+00  0.2000000E+00  0.2400000E-01
      1         -3.108516   1.000000
      2         -0.897487   1.000000
      3          1.727772   1.000000
      4          2.694875   1.000000
      5          8.999645   0.000000
      6          9.396759   0.000000
      7          9.988803   0.000000
      8         13.320541   0.000000
 
 -0.3000000E+00  0.4000000E+00  0.2000000E+00  0.2400000E-01
      1         -2.610021   1.000000
      2         -1.396849   1.000000
      3          1.574539   1.000000
      4          2.449945   1.000000
      5          9.292970   0.000000
      6          9.569484   0.000000
      7         10.979269   0.000000
      8         11.385502   0.000000
 
 -0.3000000E+00  0.5000000E+00  0.2000000E+00  0.1200000E-01
      1         -1.990895   1.000000
      2         -1.990895   1.000000
      3          1.930595   1.000000
      4          1.930595   1.000000
      5          9.042590   0.000000
      6          9.042590   0.000000
      7         11.479169   0.000000
      8         11.479169   0.000000
