 vasp.6.4.2 20Jul23 (build Oct 16 2024 22:17:43) complex                        
  
 executed on             LinuxIFC date 2025.01.29  08:31:57
 running    4 mpi-ranks, on    1 nodes
 distrk:  each k-point on    4 cores,    1 groups
 distr:  one band on NCORE=   1 cores,    4 groups


--------------------------------------------------------------------------------------------------------


 INCAR:
   SYSTEM = Si FCC
   PREC = Accurate
   EDIFF = 1E-10
   EDIFFG = -1E-5
   ISMEAR = 0
   SIGMA = 0.03
   GGA = PE
   ENCUT = 520
   NSW = 100
   IBRION = 2
   ISIF = 3
   LWAVE = .FALSE.
   LCHARG = .FALSE.

 POTCAR:    PAW_PBE Si 05Jan2001                  
 POTCAR:    PAW_PBE Si 05Jan2001                  
   SHA256 =  79d9987ad8750f624c4d6acb2a16d13abf6a777132adc04dc6c8399be72b42bb Si/POTCAR             
   COPYR  = (c) Copyright 05Jan2001 Georg Kresse                                                    
   COPYR  = This file is part of the software VASP. Any use, copying, and all other rights are regul
   COPYR  = If you do not have a valid VASP license, you may not use, copy or distribute this file. 
   VRHFIN =Si: s2p2                                                                                 
   LEXCH  = PE                                                                                      
   EATOM  =   103.0669 eV,    7.5752 Ry                                                             
                                                                                                    
   TITEL  = PAW_PBE Si 05Jan2001                                                                    
   LULTRA =        F    use ultrasoft PP ?                                                          
   IUNSCR =        1    unscreen: 0-lin 1-nonlin 2-no                                               
   RPACOR =    1.500    partial core radius                                                         
   POMASS =   28.085; ZVAL   =    4.000    mass and valenz                                          
   RCORE  =    1.900    outmost cutoff radius                                                       
   RWIGS  =    2.480; RWIGS  =    1.312    wigner-seitz radius (au A)                               
   ENMAX  =  245.345; ENMIN  =  184.009 eV                                                          
   ICORE  =        2    local potential                                                             
   LCOR   =        T    correct aug charges                                                         
   LPAW   =        T    paw PP                                                                      
   EAUG   =  322.069                                                                                
   DEXC   =    0.000                                                                                
   RMAX   =    1.950    core radius for proj-oper                                                   
   RAUG   =    1.300    factor for augmentation sphere                                              
   RDEP   =    1.993    radius for radial grids                                                     
   RDEPT  =    1.837    core radius for aug-charge                                                  
                                                                                                    
   Atomic configuration                                                                             
    6 entries                                                                                       
     n  l   j            E        occ.                                                              
     1  0  0.50     -1785.8828   2.0000                                                             
     2  0  0.50      -139.4969   2.0000                                                             
     2  1  1.50       -95.5546   6.0000                                                             
     3  0  0.50       -10.8127   2.0000                                                             
     3  1  0.50        -4.0811   2.0000                                                             
     3  2  1.50        -4.0817   0.0000                                                             
   Description                                                                                      
     l       E           TYP  RCUT    TYP  RCUT                                                     
     0    -10.8127223     23  1.900                                                                 
     0     -7.6451159     23  1.900                                                                 
     1     -4.0811372     23  1.900                                                                 
     1      2.4879257     23  1.900                                                                 
     2     -4.0817478      7  1.900                                                                 
  local pseudopotential read in
  partial core-charges read in
  partial kinetic energy density read in
  atomic valenz-charges read in
  non local Contribution for L=           0  read in
    real space projection operators read in
  non local Contribution for L=           0  read in
    real space projection operators read in
  non local Contribution for L=           1  read in
    real space projection operators read in
  non local Contribution for L=           1  read in
    real space projection operators read in
    PAW grid and wavefunctions read in
 
   number of l-projection  operators is LMAX  =           4
   number of lm-projection operators is LMMAX =           8
 
  PAW_PBE Si 05Jan2001                  :
 energy of atom  1       EATOM= -103.0669
 kinetic energy error for atom=    0.0005 (will be added to EATOM!!)
 
 
 POSCAR: Si [FCC,FCC,cF8]
  positions in direct lattice
  velocities in cartesian coordinates
 exchange correlation table for  LEXCH =        8
   RHO(1)=    0.500       N(1)  =     2000
   RHO(2)=  100.500       N(2)  =     4000

 VTST: version 4.1, (05/19/21)

 CHAIN: initializing optimizer
 
 OPT: Using VASP Conjugate-Gradient optimizer
 CHAIN: Read ICHAIN            0
 
 POSCAR: Si [FCC,FCC,cF8]
  positions in direct lattice
  velocities in cartesian coordinates
 


--------------------------------------------------------------------------------------------------------


 ion  position               nearest neighbor table
   1  0.000  0.000  0.000-   2 2.37   2 2.37   2 2.37   2 2.37
   2  0.250  0.250  0.250-   1 2.37   1 2.37   1 2.37   1 2.37
 
  LATTYP: Found a face centered cubic cell.
 ALAT       =     5.4684751714
  
  Lattice vectors:
  
 A1 = (   0.0000000000,   2.7342375857,   2.7342375857)
 A2 = (   2.7342375857,   0.0000000000,   2.7342375857)
 A3 = (   2.7342375857,   2.7342375857,   0.0000000000)


Analysis of symmetry for initial positions (statically):
=====================================================================
 Subroutine PRICEL returns:
 Original cell was already a primitive cell.
 

 Routine SETGRP: Setting up the symmetry group for a 
 face centered cubic supercell.


 Subroutine GETGRP returns: Found 48 space group operations
 (whereof 24 operations were pure point group operations)
 out of a pool of 48 trial point group operations.


The static configuration has the point symmetry T_d .
 The point group associated with its full space group is O_h .


Analysis of symmetry for dynamics (positions and initial velocities):
=====================================================================
 Subroutine PRICEL returns:
 Original cell was already a primitive cell.
 

 Routine SETGRP: Setting up the symmetry group for a 
 face centered cubic supercell.


 Subroutine GETGRP returns: Found 48 space group operations
 (whereof 24 operations were pure point group operations)
 out of a pool of 48 trial point group operations.


The dynamic configuration has the point symmetry T_d .
 The point group associated with its full space group is O_h .


 Subroutine INISYM returns: Found 48 space group operations
 (whereof 24 operations are pure point group operations),
 and found     1 'primitive' translations


----------------------------------------------------------------------------------------

                                     Primitive cell                                     

  volume of cell :      40.8826

  direct lattice vectors                    reciprocal lattice vectors
     0.000000000  2.734237586  2.734237586    -0.182866333  0.182866333  0.182866333
     2.734237586  0.000000000  2.734237586     0.182866333 -0.182866333  0.182866333
     2.734237586  2.734237586  0.000000000     0.182866333  0.182866333 -0.182866333

  length of vectors
     3.866795876  3.866795876  3.866795876     0.316733779  0.316733779  0.316733779

  position of ions in fractional coordinates (direct lattice)
     0.000000000  0.000000000  0.000000000
     0.250000000  0.250000000  0.250000000

  ion indices of the primitive-cell ions
   primitive index   ion index
                 1           1
                 2           2

----------------------------------------------------------------------------------------

 
 
 KPOINTS: KPOINTS                                 

Automatic generation of k-mesh.
 Grid dimensions read from file:
 generate k-points for:   10   10   10

 Generating k-lattice:

  Cartesian coordinates                     Fractional coordinates (reciprocal lattice)
    -0.018286633  0.018286633  0.018286633     0.100000000  0.000000000  0.000000000
     0.018286633 -0.018286633  0.018286633     0.000000000  0.100000000  0.000000000
     0.018286633  0.018286633 -0.018286633     0.000000000  0.000000000  0.100000000

  Length of vectors
     0.031673378  0.031673378  0.031673378

  Shift w.r.t. Gamma in fractional coordinates (k-lattice)
     0.000000000  0.000000000  0.000000000

 
 Subroutine IBZKPT returns following result:
 ===========================================
 
 Found     47 irreducible k-points:
 
 Following reciprocal coordinates:
            Coordinates               Weight
  0.000000  0.000000  0.000000      1.000000
  0.100000  0.000000  0.000000      8.000000
  0.200000  0.000000  0.000000      8.000000
  0.300000  0.000000  0.000000      8.000000
  0.400000  0.000000  0.000000      8.000000
  0.500000  0.000000  0.000000      4.000000
  0.100000  0.100000  0.000000      6.000000
  0.200000  0.100000  0.000000     24.000000
  0.300000  0.100000  0.000000     24.000000
  0.400000  0.100000  0.000000     24.000000
  0.500000  0.100000  0.000000     24.000000
 -0.400000  0.100000  0.000000     24.000000
 -0.300000  0.100000  0.000000     24.000000
 -0.200000  0.100000  0.000000     24.000000
 -0.100000  0.100000  0.000000     12.000000
  0.200000  0.200000  0.000000      6.000000
  0.300000  0.200000  0.000000     24.000000
  0.400000  0.200000  0.000000     24.000000
  0.500000  0.200000  0.000000     24.000000
 -0.400000  0.200000  0.000000     24.000000
 -0.300000  0.200000  0.000000     24.000000
 -0.200000  0.200000  0.000000     12.000000
  0.300000  0.300000  0.000000      6.000000
  0.400000  0.300000  0.000000     24.000000
  0.500000  0.300000  0.000000     24.000000
 -0.400000  0.300000  0.000000     24.000000
 -0.300000  0.300000  0.000000     12.000000
  0.400000  0.400000  0.000000      6.000000
  0.500000  0.400000  0.000000     24.000000
 -0.400000  0.400000  0.000000     12.000000
  0.500000  0.500000  0.000000      3.000000
  0.300000  0.200000  0.100000     24.000000
  0.400000  0.200000  0.100000     48.000000
  0.500000  0.200000  0.100000     48.000000
 -0.400000  0.200000  0.100000     24.000000
  0.400000  0.300000  0.100000     24.000000
  0.500000  0.300000  0.100000     48.000000
 -0.400000  0.300000  0.100000     48.000000
 -0.300000  0.300000  0.100000     48.000000
 -0.200000  0.300000  0.100000     24.000000
  0.500000  0.400000  0.100000     24.000000
 -0.400000  0.400000  0.100000     48.000000
 -0.300000  0.400000  0.100000     24.000000
 -0.400000  0.500000  0.100000     12.000000
 -0.400000  0.400000  0.200000     24.000000
 -0.300000  0.400000  0.200000     24.000000
 -0.300000  0.500000  0.200000     12.000000
 
 Following cartesian coordinates:
            Coordinates               Weight
  0.000000  0.000000  0.000000      1.000000
 -0.018287  0.018287  0.018287      8.000000
 -0.036573  0.036573  0.036573      8.000000
 -0.054860  0.054860  0.054860      8.000000
 -0.073147  0.073147  0.073147      8.000000
 -0.091433  0.091433  0.091433      4.000000
  0.000000  0.000000  0.036573      6.000000
 -0.018287  0.018287  0.054860     24.000000
 -0.036573  0.036573  0.073147     24.000000
 -0.054860  0.054860  0.091433     24.000000
 -0.073147  0.073147  0.109720     24.000000
  0.091433 -0.091433 -0.054860     24.000000
  0.073147 -0.073147 -0.036573     24.000000
  0.054860 -0.054860 -0.018287     24.000000
  0.036573 -0.036573  0.000000     12.000000
  0.000000  0.000000  0.073147      6.000000
 -0.018287  0.018287  0.091433     24.000000
 -0.036573  0.036573  0.109720     24.000000
 -0.054860  0.054860  0.128006     24.000000
  0.109720 -0.109720 -0.036573     24.000000
  0.091433 -0.091433 -0.018287     24.000000
  0.073147 -0.073147  0.000000     12.000000
  0.000000  0.000000  0.109720      6.000000
 -0.018287  0.018287  0.128006     24.000000
 -0.036573  0.036573  0.146293     24.000000
  0.128006 -0.128006 -0.018287     24.000000
  0.109720 -0.109720  0.000000     12.000000
  0.000000  0.000000  0.146293      6.000000
 -0.018287  0.018287  0.164580     24.000000
  0.146293 -0.146293  0.000000     12.000000
  0.000000  0.000000  0.182866      3.000000
  0.000000  0.036573  0.073147     24.000000
 -0.018287  0.054860  0.091433     48.000000
 -0.036573  0.073147  0.109720     48.000000
  0.128006 -0.091433 -0.054860     24.000000
  0.000000  0.036573  0.109720     24.000000
 -0.018287  0.054860  0.128006     48.000000
  0.146293 -0.109720 -0.036573     48.000000
  0.128006 -0.091433 -0.018287     48.000000
  0.109720 -0.073147 -0.000000     24.000000
  0.000000  0.036573  0.146293     24.000000
  0.164580 -0.128006 -0.018287     48.000000
  0.146293 -0.109720 -0.000000     24.000000
  0.182866 -0.146293 -0.000000     12.000000
  0.182866 -0.109720 -0.036573     24.000000
  0.164580 -0.091433 -0.018287     24.000000
  0.182866 -0.109720  0.000000     12.000000
 


--------------------------------------------------------------------------------------------------------




 Dimension of arrays:
   k-points           NKPTS =     47   k-points in BZ     NKDIM =     47   number of bands    NBANDS=      8
   number of dos      NEDOS =    301   number of ions     NIONS =      2
   non local maximal  LDIM  =      4   non local SUM 2l+1 LMDIM =      8
   total plane-waves  NPLWV =  27000
   max r-space proj   IRMAX =      1   max aug-charges    IRDMAX=  22278
   dimension x,y,z NGX =    30 NGY =   30 NGZ =   30
   dimension x,y,z NGXF=    60 NGYF=   60 NGZF=   60
   support grid    NGXF=    60 NGYF=   60 NGZF=   60
   ions per type =               2
   NGX,Y,Z   is equivalent  to a cutoff of  12.90, 12.90, 12.90 a.u.
   NGXF,Y,Z  is equivalent  to a cutoff of  25.80, 25.80, 25.80 a.u.

 SYSTEM =  Si FCC                                  
 POSCAR =  Si [FCC,FCC,cF8]                        

 Startparameter for this run:
   NWRITE =      2    write-flag & timer
   PREC   = accura    normal or accurate (medium, high low for compatibility)
   ISTART =      0    job   : 0-new  1-cont  2-samecut
   ICHARG =      2    charge: 1-file 2-atom 10-const
   ISPIN  =      1    spin polarized calculation?
   LNONCOLLINEAR =      F non collinear calculations
   LSORBIT =      F    spin-orbit coupling
   INIWAV =      1    electr: 0-lowe 1-rand  2-diag
   LASPH  =      F    aspherical Exc in radial PAW
 Electronic Relaxation 1
   ENCUT  =  520.0 eV  38.22 Ry    6.18 a.u.   7.19  7.19  7.19*2*pi/ulx,y,z
   ENINI  =  520.0     initial cutoff
   ENAUG  =  322.1 eV  augmentation charge cutoff
   NELM   =     60;   NELMIN=  2; NELMDL= -5     # of ELM steps 
   EDIFF  = 0.1E-09   stopping-criterion for ELM
   LREAL  =      F    real-space projection
   NLSPLINE    = F    spline interpolate recip. space projectors
   LCOMPAT=      F    compatible to vasp.4.4
   GGA_COMPAT  = T    GGA compatible to vasp.4.4-vasp.4.6
   LMAXPAW     = -100 max onsite density
   LMAXMIX     =    2 max onsite mixed and CHGCAR
   VOSKOWN=      0    Vosko Wilk Nusair interpolation
   ROPT   =    0.00000
 Ionic relaxation
   EDIFFG = -.1E-04   stopping-criterion for IOM
   NSW    =    100    number of steps for IOM
   NBLOCK =      1;   KBLOCK =    100    inner block; outer block 
   IBRION =      2    ionic relax: 0-MD 1-quasi-New 2-CG
   NFREE  =      1    steps in history (QN), initial steepest desc. (CG)
   ISIF   =      3    stress and relaxation
   IWAVPR =     11    prediction:  0-non 1-charg 2-wave 3-comb
   ISYM   =      2    0-nonsym 1-usesym 2-fastsym
   LCORR  =      T    Harris-Foulkes like correction to forces

   POTIM  = 0.5000    time-step for ionic-motion
   TEIN   =    0.0    initial temperature
   TEBEG  =    0.0;   TEEND  =   0.0 temperature during run
   SMASS  =  -3.00    Nose mass-parameter (am)
   estimated Nose-frequenzy (Omega)   =  0.10E-29 period in steps = 0.13E+47 mass=  -0.342E-27a.u.
   SCALEE = 1.0000    scale energy and forces
   NPACO  =    256;   APACO  = 10.0  distance and # of slots for P.C.
   PSTRESS=    0.0 pullay stress

  Mass of Ions in am
   POMASS =  28.09
  Ionic Valenz
   ZVAL   =   4.00
  Atomic Wigner-Seitz radii
   RWIGS  =  -1.00
  virtual crystal weights 
   VCA    =   1.00
   NELECT =       8.0000    total number of electrons
   NUPDOWN=      -1.0000    fix difference up-down

 DOS related values:
   EMIN   =  10.00;   EMAX   =-10.00  energy-range for DOS
   EFERMI =   0.00;   METHOD = LEGACY      
   ISMEAR =     0;   SIGMA  =   0.03  broadening in eV -4-tet -1-fermi 0-gaus

 Electronic relaxation 2 (details)
   IALGO  =     38    algorithm
   LDIAG  =      T    sub-space diagonalisation (order eigenvalues)
   LSUBROT=      F    optimize rotation matrix (better conditioning)
   TURBO    =      0    0=normal 1=particle mesh
   IRESTART =      0    0=no restart 2=restart with 2 vectors
   NREBOOT  =      0    no. of reboots
   NMIN     =      0    reboot dimension
   EREF     =   0.00    reference energy to select bands
   IMIX   =      4    mixing-type and parameters
     AMIX     =   0.40;   BMIX     =  1.00
     AMIX_MAG =   1.60;   BMIX_MAG =  1.00
     AMIN     =   0.10
     WC   =   100.;   INIMIX=   1;  MIXPRE=   1;  MAXMIX= -45

 Intra band minimization:
   WEIMIN = 0.0010     energy-eigenvalue tresh-hold
   EBREAK =  0.31E-11  absolut break condition
   DEPER  =   0.30     relativ break condition  

   TIME   =   0.40     timestep for ELM

  volume/ion in A,a.u.               =      20.44       137.94
  Fermi-wavevector in a.u.,A,eV,Ry     =   0.950441  1.796073 12.290666  0.903338
  Thomas-Fermi vector in A             =   2.078818
 
 Write flags
   LWAVE        =      F    write WAVECAR
   LDOWNSAMPLE  =      F    k-point downsampling of WAVECAR
   LCHARG       =      F    write CHGCAR
   LVTOT        =      F    write LOCPOT, total local potential
   LVHAR        =      F    write LOCPOT, Hartree potential only
   LELF         =      F    write electronic localiz. function (ELF)
   LORBIT       =      0    0 simple, 1 ext, 2 COOP (PROOUT), +10 PAW based schemes


 Dipole corrections
   LMONO  =      F    monopole corrections only (constant potential shift)
   LDIPOL =      F    correct potential (dipole corrections)
   IDIPOL =      0    1-x, 2-y, 3-z, 4-all directions 
   EPSILON=  1.0000000 bulk dielectric constant

 Exchange correlation treatment:
   GGA     =    PE    GGA type
   LEXCH   =     8    internal setting for exchange type
   LIBXC   =     F    Libxc                    
   VOSKOWN =     0    Vosko Wilk Nusair interpolation
   LHFCALC =     F    Hartree Fock is set to
   LHFONE  =     F    Hartree Fock one center treatment
   AEXX    =    0.0000 exact exchange contribution

 Linear response parameters
   LEPSILON=     F    determine dielectric tensor
   LRPA    =     F    only Hartree local field effects (RPA)
   LNABLA  =     F    use nabla operator in PAW spheres
   LVEL    =     F    velocity operator in full k-point grid
   CSHIFT  =0.1000    complex shift for real part using Kramers Kronig
   OMEGAMAX=  -1.0    maximum frequency
   DEG_THRESHOLD= 0.2000000E-02 threshold for treating states as degnerate
   RTIME   =   -0.100 relaxation time in fs
  (WPLASMAI=    0.000 imaginary part of plasma frequency in eV, 0.658/RTIME)
   DFIELD  = 0.0000000 0.0000000 0.0000000 field for delta impulse in time
 
  Optional k-point grid parameters
   LKPOINTS_OPT  =     F    use optional k-point grid
   KPOINTS_OPT_MODE=     1    mode for optional k-point grid
 
 Orbital magnetization related:
   ORBITALMAG=     F  switch on orbital magnetization
   LCHIMAG   =     F  perturbation theory with respect to B field
   DQ        =  0.001000  dq finite difference perturbation B field
   LLRAUG    =     F  two centre corrections for induced B field
   LBONE     =     F  B-component reconstruction in AE one-centre
   LVGVCALC  =     T  calculate vGv susceptibility
   LVGVAPPL  =     F  apply vGv susceptibility instead of pGv for G=0

 Random number generation:
   RANDOM_GENERATOR = DEFAULT
   PCG_SEED         = not used


--------------------------------------------------------------------------------------------------------


 conjugate gradient relaxation of ions
 charge density and potential will be updated during run
 non-spin polarized calculation
 Variant of blocked Davidson
 Davidson routine will perform the subspace rotation
 perform sub-space diagonalisation
    after iterative eigenvector-optimisation
 modified Broyden-mixing scheme, WC =      100.0
 initial mixing is a Kerker type mixing with AMIX =  0.4000 and BMIX =      1.0000
 Hartree-type preconditioning will be used
 using additional bands            4
 reciprocal scheme for non local part
 use partial core corrections
 calculate Harris-corrections to forces 
   (improved forces if not selfconsistent)
 use gradient corrections 
 use of overlap-Matrix (Vanderbilt PP)
 Gauss-broadening in eV      SIGMA  =   0.03


--------------------------------------------------------------------------------------------------------


  energy-cutoff  :      520.00
  volume of cell :       40.88
      direct lattice vectors                 reciprocal lattice vectors
     0.000000000  2.734237586  2.734237586    -0.182866333  0.182866333  0.182866333
     2.734237586  0.000000000  2.734237586     0.182866333 -0.182866333  0.182866333
     2.734237586  2.734237586  0.000000000     0.182866333  0.182866333 -0.182866333

  length of vectors
     3.866795876  3.866795876  3.866795876     0.316733779  0.316733779  0.316733779


 
 k-points in units of 2pi/SCALE and weight: KPOINTS                                 
   0.00000000  0.00000000  0.00000000       0.001
  -0.01828663  0.01828663  0.01828663       0.008
  -0.03657327  0.03657327  0.03657327       0.008
  -0.05485990  0.05485990  0.05485990       0.008
  -0.07314653  0.07314653  0.07314653       0.008
  -0.09143317  0.09143317  0.09143317       0.004
   0.00000000  0.00000000  0.03657327       0.006
  -0.01828663  0.01828663  0.05485990       0.024
  -0.03657327  0.03657327  0.07314653       0.024
  -0.05485990  0.05485990  0.09143317       0.024
  -0.07314653  0.07314653  0.10971980       0.024
   0.09143317 -0.09143317 -0.05485990       0.024
   0.07314653 -0.07314653 -0.03657327       0.024
   0.05485990 -0.05485990 -0.01828663       0.024
   0.03657327 -0.03657327  0.00000000       0.012
   0.00000000  0.00000000  0.07314653       0.006
  -0.01828663  0.01828663  0.09143317       0.024
  -0.03657327  0.03657327  0.10971980       0.024
  -0.05485990  0.05485990  0.12800643       0.024
   0.10971980 -0.10971980 -0.03657327       0.024
   0.09143317 -0.09143317 -0.01828663       0.024
   0.07314653 -0.07314653  0.00000000       0.012
   0.00000000  0.00000000  0.10971980       0.006
  -0.01828663  0.01828663  0.12800643       0.024
  -0.03657327  0.03657327  0.14629307       0.024
   0.12800643 -0.12800643 -0.01828663       0.024
   0.10971980 -0.10971980  0.00000000       0.012
   0.00000000  0.00000000  0.14629307       0.006
  -0.01828663  0.01828663  0.16457970       0.024
   0.14629307 -0.14629307  0.00000000       0.012
   0.00000000  0.00000000  0.18286633       0.003
   0.00000000  0.03657327  0.07314653       0.024
  -0.01828663  0.05485990  0.09143317       0.048
  -0.03657327  0.07314653  0.10971980       0.048
   0.12800643 -0.09143317 -0.05485990       0.024
   0.00000000  0.03657327  0.10971980       0.024
  -0.01828663  0.05485990  0.12800643       0.048
   0.14629307 -0.10971980 -0.03657327       0.048
   0.12800643 -0.09143317 -0.01828663       0.048
   0.10971980 -0.07314653 -0.00000000       0.024
   0.00000000  0.03657327  0.14629307       0.024
   0.16457970 -0.12800643 -0.01828663       0.048
   0.14629307 -0.10971980 -0.00000000       0.024
   0.18286633 -0.14629307 -0.00000000       0.012
   0.18286633 -0.10971980 -0.03657327       0.024
   0.16457970 -0.09143317 -0.01828663       0.024
   0.18286633 -0.10971980  0.00000000       0.012
 
 k-points in reciprocal lattice and weights: KPOINTS                                 
   0.00000000  0.00000000  0.00000000       0.001
   0.10000000  0.00000000  0.00000000       0.008
   0.20000000  0.00000000  0.00000000       0.008
   0.30000000  0.00000000  0.00000000       0.008
   0.40000000  0.00000000  0.00000000       0.008
   0.50000000  0.00000000  0.00000000       0.004
   0.10000000  0.10000000  0.00000000       0.006
   0.20000000  0.10000000  0.00000000       0.024
   0.30000000  0.10000000  0.00000000       0.024
   0.40000000  0.10000000  0.00000000       0.024
   0.50000000  0.10000000  0.00000000       0.024
  -0.40000000  0.10000000  0.00000000       0.024
  -0.30000000  0.10000000  0.00000000       0.024
  -0.20000000  0.10000000  0.00000000       0.024
  -0.10000000  0.10000000  0.00000000       0.012
   0.20000000  0.20000000  0.00000000       0.006
   0.30000000  0.20000000  0.00000000       0.024
   0.40000000  0.20000000  0.00000000       0.024
   0.50000000  0.20000000  0.00000000       0.024
  -0.40000000  0.20000000  0.00000000       0.024
  -0.30000000  0.20000000  0.00000000       0.024
  -0.20000000  0.20000000  0.00000000       0.012
   0.30000000  0.30000000  0.00000000       0.006
   0.40000000  0.30000000  0.00000000       0.024
   0.50000000  0.30000000  0.00000000       0.024
  -0.40000000  0.30000000  0.00000000       0.024
  -0.30000000  0.30000000  0.00000000       0.012
   0.40000000  0.40000000  0.00000000       0.006
   0.50000000  0.40000000  0.00000000       0.024
  -0.40000000  0.40000000  0.00000000       0.012
   0.50000000  0.50000000  0.00000000       0.003
   0.30000000  0.20000000  0.10000000       0.024
   0.40000000  0.20000000  0.10000000       0.048
   0.50000000  0.20000000  0.10000000       0.048
  -0.40000000  0.20000000  0.10000000       0.024
   0.40000000  0.30000000  0.10000000       0.024
   0.50000000  0.30000000  0.10000000       0.048
  -0.40000000  0.30000000  0.10000000       0.048
  -0.30000000  0.30000000  0.10000000       0.048
  -0.20000000  0.30000000  0.10000000       0.024
   0.50000000  0.40000000  0.10000000       0.024
  -0.40000000  0.40000000  0.10000000       0.048
  -0.30000000  0.40000000  0.10000000       0.024
  -0.40000000  0.50000000  0.10000000       0.012
  -0.40000000  0.40000000  0.20000000       0.024
  -0.30000000  0.40000000  0.20000000       0.024
  -0.30000000  0.50000000  0.20000000       0.012
 
 position of ions in fractional coordinates (direct lattice) 
   0.00000000  0.00000000  0.00000000
   0.25000000  0.25000000  0.25000000
 
 position of ions in cartesian coordinates  (Angst):
   0.00000000  0.00000000  0.00000000
   1.36711879  1.36711879  1.36711879
 


--------------------------------------------------------------------------------------------------------


 k-point   1 :   0.0000 0.0000 0.0000  plane waves:    1067
 k-point   2 :   0.1000 0.0000 0.0000  plane waves:    1097
 k-point   3 :   0.2000 0.0000 0.0000  plane waves:    1098
 k-point   4 :   0.3000 0.0000 0.0000  plane waves:    1089
 k-point   5 :   0.4000 0.0000 0.0000  plane waves:    1101
 k-point   6 :   0.5000 0.0000 0.0000  plane waves:    1104
 k-point   7 :   0.1000 0.1000 0.0000  plane waves:    1098
 k-point   8 :   0.2000 0.1000 0.0000  plane waves:    1108
 k-point   9 :   0.3000 0.1000 0.0000  plane waves:    1094
 k-point  10 :   0.4000 0.1000 0.0000  plane waves:    1105
 k-point  11 :   0.5000 0.1000 0.0000  plane waves:    1105
 k-point  12 :  -0.4000 0.1000 0.0000  plane waves:    1103
 k-point  13 :  -0.3000 0.1000 0.0000  plane waves:    1101
 k-point  14 :  -0.2000 0.1000 0.0000  plane waves:    1094
 k-point  15 :  -0.1000 0.1000 0.0000  plane waves:    1109
 k-point  16 :   0.2000 0.2000 0.0000  plane waves:    1106
 k-point  17 :   0.3000 0.2000 0.0000  plane waves:    1089
 k-point  18 :   0.4000 0.2000 0.0000  plane waves:    1097
 k-point  19 :   0.5000 0.2000 0.0000  plane waves:    1103
 k-point  20 :  -0.4000 0.2000 0.0000  plane waves:    1114
 k-point  21 :  -0.3000 0.2000 0.0000  plane waves:    1109
 k-point  22 :  -0.2000 0.2000 0.0000  plane waves:    1093
 k-point  23 :   0.3000 0.3000 0.0000  plane waves:    1094
 k-point  24 :   0.4000 0.3000 0.0000  plane waves:    1100
 k-point  25 :   0.5000 0.3000 0.0000  plane waves:    1102
 k-point  26 :  -0.4000 0.3000 0.0000  plane waves:    1106
 k-point  27 :  -0.3000 0.3000 0.0000  plane waves:    1113
 k-point  28 :   0.4000 0.4000 0.0000  plane waves:    1094
 k-point  29 :   0.5000 0.4000 0.0000  plane waves:    1106
 k-point  30 :  -0.4000 0.4000 0.0000  plane waves:    1105
 k-point  31 :   0.5000 0.5000 0.0000  plane waves:    1106
 k-point  32 :   0.3000 0.2000 0.1000  plane waves:    1098
 k-point  33 :   0.4000 0.2000 0.1000  plane waves:    1093
 k-point  34 :   0.5000 0.2000 0.1000  plane waves:    1100
 k-point  35 :  -0.4000 0.2000 0.1000  plane waves:    1108
 k-point  36 :   0.4000 0.3000 0.1000  plane waves:    1086
 k-point  37 :   0.5000 0.3000 0.1000  plane waves:    1093
 k-point  38 :  -0.4000 0.3000 0.1000  plane waves:    1101
 k-point  39 :  -0.3000 0.3000 0.1000  plane waves:    1102
 k-point  40 :  -0.2000 0.3000 0.1000  plane waves:    1103
 k-point  41 :   0.5000 0.4000 0.1000  plane waves:    1094
 k-point  42 :  -0.4000 0.4000 0.1000  plane waves:    1106
 k-point  43 :  -0.3000 0.4000 0.1000  plane waves:    1104
 k-point  44 :  -0.4000 0.5000 0.1000  plane waves:    1102
 k-point  45 :  -0.4000 0.4000 0.2000  plane waves:    1099
 k-point  46 :  -0.3000 0.4000 0.2000  plane waves:    1104
 k-point  47 :  -0.3000 0.5000 0.2000  plane waves:    1104

 maximum and minimum number of plane-waves per node :      1114     1067

 maximum number of plane-waves:      1114
 maximum index in each direction: 
   IXMAX=    7   IYMAX=    7   IZMAX=    7
   IXMIN=   -7   IYMIN=   -7   IZMIN=   -7


 serial   3D FFT for wavefunctions
 parallel 3D FFT for charge:
    minimum data exchange during FFTs selected (reduces bandwidth)


 total amount of memory used by VASP MPI-rank0    40830. kBytes
=======================================================================

   base      :      30000. kBytes
   nonl-proj :       3392. kBytes
   fftplans  :       1986. kBytes
   grid      :       3744. kBytes
   one-center:          6. kBytes
   wavefun   :       1702. kBytes
 
     INWAV:  cpu time      0.0002: real time      0.0267
 Broyden mixing: mesh for mixing (old mesh)
   NGX = 15   NGY = 15   NGZ = 15
  (NGX  = 60   NGY  = 60   NGZ  = 60)
  gives a total of   3375 points

 initial charge density was supplied:
 charge density of overlapping atoms calculated
 number of electron       8.0000000 magnetization 
 keeping initial charge density in first step


--------------------------------------------------------------------------------------------------------


 Maximum index for augmentation-charges         5379 (set IRDMAX)


--------------------------------------------------------------------------------------------------------


 First call to EWALD:  gamma=   0.515
 Maximum number of real-space cells 3x 3x 3
 Maximum number of reciprocal cells 3x 3x 3

    FEWALD:  cpu time      0.0013: real time      0.0013


--------------------------------------- Ionic step        1  -------------------------------------------




--------------------------------------- Iteration      1(   1)  ---------------------------------------


    POTLOK:  cpu time      0.0314: real time      0.0352
    SETDIJ:  cpu time      0.0051: real time      0.0063
     EDDAV:  cpu time      0.4429: real time      0.4510
       DOS:  cpu time      0.0010: real time      0.0032
    --------------------------------------------
      LOOP:  cpu time      0.4805: real time      0.4957

 eigenvalue-minimisations  :   752
 total energy-change (2. order) : 0.6777597E+01  (-0.3296879E+03)
 number of electron       8.0000000 magnetization 
 augmentation part        8.0000000 magnetization 

 Free energy of the ion-electron system (eV)
  ---------------------------------------------------
  alpha Z        PSCENC =         3.29363716
  Ewald energy   TEWEN  =      -226.95539459
  -Hartree energ DENC   =       -11.32127730
  -exchange      EXHF   =         0.00000000
  -V(xc)+E(xc)   XCENC  =       -18.68464129
  PAW double counting   =       176.24759923     -141.06103558
  entropy T*S    EENTRO =        -0.00029859
  eigenvalues    EBANDS =        19.12630555
  atomic energy  EATOM  =       206.13270273
  Solvation  Ediel_sol  =         0.00000000
  ---------------------------------------------------
  free energy    TOTEN  =         6.77759732 eV

  energy without entropy =        6.77789591  energy(sigma->0) =        6.77774661


--------------------------------------------------------------------------------------------------------




--------------------------------------- Iteration      1(   2)  ---------------------------------------


     EDDAV:  cpu time      0.6425: real time      0.7325
       DOS:  cpu time      0.0002: real time      0.0002
    --------------------------------------------
      LOOP:  cpu time      0.6428: real time      0.7327

 eigenvalue-minimisations  :  1184
 total energy-change (2. order) :-0.1755813E+02  (-0.1702922E+02)
 number of electron       8.0000000 magnetization 
 augmentation part        8.0000000 magnetization 

 Free energy of the ion-electron system (eV)
  ---------------------------------------------------
  alpha Z        PSCENC =         3.29363716
  Ewald energy   TEWEN  =      -226.95539459
  -Hartree energ DENC   =       -11.32127730
  -exchange      EXHF   =         0.00000000
  -V(xc)+E(xc)   XCENC  =       -18.68464129
  PAW double counting   =       176.24759923     -141.06103558
  entropy T*S    EENTRO =        -0.00000000
  eigenvalues    EBANDS =         1.56787555
  atomic energy  EATOM  =       206.13270273
  Solvation  Ediel_sol  =         0.00000000
  ---------------------------------------------------
  free energy    TOTEN  =       -10.78053409 eV

  energy without entropy =      -10.78053409  energy(sigma->0) =      -10.78053409


--------------------------------------------------------------------------------------------------------




--------------------------------------- Iteration      1(   3)  ---------------------------------------


     EDDAV:  cpu time      0.5276: real time      0.5525
       DOS:  cpu time      0.0003: real time      0.0003
    --------------------------------------------
      LOOP:  cpu time      0.5279: real time      0.5528

 eigenvalue-minimisations  :   928
 total energy-change (2. order) :-0.2357950E+00  (-0.2357950E+00)
 number of electron       8.0000000 magnetization 
 augmentation part        8.0000000 magnetization 

 Free energy of the ion-electron system (eV)
  ---------------------------------------------------
  alpha Z        PSCENC =         3.29363716
  Ewald energy   TEWEN  =      -226.95539459
  -Hartree energ DENC   =       -11.32127730
  -exchange      EXHF   =         0.00000000
  -V(xc)+E(xc)   XCENC  =       -18.68464129
  PAW double counting   =       176.24759923     -141.06103558
  entropy T*S    EENTRO =        -0.00000000
  eigenvalues    EBANDS =         1.33208052
  atomic energy  EATOM  =       206.13270273
  Solvation  Ediel_sol  =         0.00000000
  ---------------------------------------------------
  free energy    TOTEN  =       -11.01632913 eV

  energy without entropy =      -11.01632913  energy(sigma->0) =      -11.01632913


--------------------------------------------------------------------------------------------------------




--------------------------------------- Iteration      1(   4)  ---------------------------------------


     EDDAV:  cpu time      0.6251: real time      0.6308
       DOS:  cpu time      0.0002: real time      0.0002
    --------------------------------------------
      LOOP:  cpu time      0.6253: real time      0.6310

 eigenvalue-minimisations  :  1200
 total energy-change (2. order) :-0.1165610E-02  (-0.1165610E-02)
 number of electron       8.0000000 magnetization 
 augmentation part        8.0000000 magnetization 

 Free energy of the ion-electron system (eV)
  ---------------------------------------------------
  alpha Z        PSCENC =         3.29363716
  Ewald energy   TEWEN  =      -226.95539459
  -Hartree energ DENC   =       -11.32127730
  -exchange      EXHF   =         0.00000000
  -V(xc)+E(xc)   XCENC  =       -18.68464129
  PAW double counting   =       176.24759923     -141.06103558
  entropy T*S    EENTRO =        -0.00000000
  eigenvalues    EBANDS =         1.33091491
  atomic energy  EATOM  =       206.13270273
  Solvation  Ediel_sol  =         0.00000000
  ---------------------------------------------------
  free energy    TOTEN  =       -11.01749474 eV

  energy without entropy =      -11.01749474  energy(sigma->0) =      -11.01749474


--------------------------------------------------------------------------------------------------------




--------------------------------------- Iteration      1(   5)  ---------------------------------------


     EDDAV:  cpu time      0.5413: real time      0.5461
       DOS:  cpu time      0.0002: real time      0.0002
    CHARGE:  cpu time      0.0396: real time      0.0398
    MIXING:  cpu time      0.0015: real time      0.0029
    --------------------------------------------
      LOOP:  cpu time      0.5826: real time      0.5890

 eigenvalue-minimisations  :  1000
 total energy-change (2. order) :-0.8265915E-06  (-0.8265914E-06)
 number of electron       8.0000001 magnetization 
 augmentation part       -0.4696079 magnetization 

 Broyden mixing:
  rms(total) = 0.47498E+00    rms(broyden)= 0.47498E+00
  rms(prec ) = 0.93071E+00
  weight for this iteration     100.00

 Free energy of the ion-electron system (eV)
  ---------------------------------------------------
  alpha Z        PSCENC =         3.29363716
  Ewald energy   TEWEN  =      -226.95539459
  -Hartree energ DENC   =       -11.32127730
  -exchange      EXHF   =         0.00000000
  -V(xc)+E(xc)   XCENC  =       -18.68464129
  PAW double counting   =       176.24759923     -141.06103558
  entropy T*S    EENTRO =        -0.00000000
  eigenvalues    EBANDS =         1.33091408
  atomic energy  EATOM  =       206.13270273
  Solvation  Ediel_sol  =         0.00000000
  ---------------------------------------------------
  free energy    TOTEN  =       -11.01749557 eV

  energy without entropy =      -11.01749557  energy(sigma->0) =      -11.01749557


--------------------------------------------------------------------------------------------------------




--------------------------------------- Iteration      1(   6)  ---------------------------------------


    POTLOK:  cpu time      0.0388: real time      0.1410
    SETDIJ:  cpu time      0.0022: real time      0.0022
     EDDAV:  cpu time      0.4968: real time      0.5003
       DOS:  cpu time      0.0002: real time      0.0002
    CHARGE:  cpu time      0.0383: real time      0.0386
    MIXING:  cpu time      0.0014: real time      0.0015
    --------------------------------------------
      LOOP:  cpu time      0.5778: real time      0.6838

 eigenvalue-minimisations  :   896
 total energy-change (2. order) : 0.1159833E+00  (-0.7574394E-02)
 number of electron       8.0000001 magnetization 
 augmentation part       -0.4640281 magnetization 

 Broyden mixing:
  rms(total) = 0.29008E+00    rms(broyden)= 0.29008E+00
  rms(prec ) = 0.55433E+00
  weight for this iteration     100.00

 eigenvalues of (default mixing * dielectric matrix)
  average eigenvalue GAMMA=   2.5601
  2.5601

 Free energy of the ion-electron system (eV)
  ---------------------------------------------------
  alpha Z        PSCENC =         3.29363716
  Ewald energy   TEWEN  =      -226.95539459
  -Hartree energ DENC   =       -12.78561945
  -exchange      EXHF   =         0.00000000
  -V(xc)+E(xc)   XCENC  =       -18.45452053
  PAW double counting   =       371.05519589     -335.97118411
  entropy T*S    EENTRO =        -0.00000000
  eigenvalues    EBANDS =         2.78367062
  atomic energy  EATOM  =       206.13270273
  Solvation  Ediel_sol  =         0.00000000
  ---------------------------------------------------
  free energy    TOTEN  =       -10.90151229 eV

  energy without entropy =      -10.90151229  energy(sigma->0) =      -10.90151229


--------------------------------------------------------------------------------------------------------




--------------------------------------- Iteration      1(   7)  ---------------------------------------


    POTLOK:  cpu time      0.0501: real time      0.1087
    SETDIJ:  cpu time      0.0019: real time      0.0020
     EDDAV:  cpu time      0.5142: real time      0.5177
       DOS:  cpu time      0.0002: real time      0.0002
    CHARGE:  cpu time      0.0382: real time      0.0384
    MIXING:  cpu time      0.0011: real time      0.0012
    --------------------------------------------
      LOOP:  cpu time      0.6058: real time      0.6681

 eigenvalue-minimisations  :   944
 total energy-change (2. order) : 0.5363262E-01  (-0.1456439E-01)
 number of electron       8.0000001 magnetization 
 augmentation part       -0.4572415 magnetization 

 Broyden mixing:
  rms(total) = 0.17367E-01    rms(broyden)= 0.17367E-01
  rms(prec ) = 0.40044E-01
  weight for this iteration     100.00

 eigenvalues of (default mixing * dielectric matrix)
  average eigenvalue GAMMA=   2.0647
  1.7519  2.3775

 Free energy of the ion-electron system (eV)
  ---------------------------------------------------
  alpha Z        PSCENC =         3.29363716
  Ewald energy   TEWEN  =      -226.95539459
  -Hartree energ DENC   =       -15.18971148
  -exchange      EXHF   =         0.00000000
  -V(xc)+E(xc)   XCENC  =       -18.06806373
  PAW double counting   =       832.48357802     -797.53173224
  entropy T*S    EENTRO =        -0.00000000
  eigenvalues    EBANDS =         4.98710446
  atomic energy  EATOM  =       206.13270273
  Solvation  Ediel_sol  =         0.00000000
  ---------------------------------------------------
  free energy    TOTEN  =       -10.84787967 eV

  energy without entropy =      -10.84787967  energy(sigma->0) =      -10.84787967


--------------------------------------------------------------------------------------------------------




--------------------------------------- Iteration      1(   8)  ---------------------------------------


    POTLOK:  cpu time      0.0965: real time      0.1450
    SETDIJ:  cpu time      0.0019: real time      0.0019
     EDDAV:  cpu time      0.4907: real time      0.4940
       DOS:  cpu time      0.0003: real time      0.0003
    CHARGE:  cpu time      0.0395: real time      0.0398
    MIXING:  cpu time      0.0015: real time      0.0015
    --------------------------------------------
      LOOP:  cpu time      0.6304: real time      0.6824

 eigenvalue-minimisations  :   872
 total energy-change (2. order) :-0.1101033E-02  (-0.3858397E-03)
 number of electron       8.0000001 magnetization 
 augmentation part       -0.4582016 magnetization 

 Broyden mixing:
  rms(total) = 0.73735E-02    rms(broyden)= 0.73735E-02
  rms(prec ) = 0.13124E-01
  weight for this iteration     100.00

 eigenvalues of (default mixing * dielectric matrix)
  average eigenvalue GAMMA=   2.2620
  2.8423  1.9718  1.9718

 Free energy of the ion-electron system (eV)
  ---------------------------------------------------
  alpha Z        PSCENC =         3.29363716
  Ewald energy   TEWEN  =      -226.95539459
  -Hartree energ DENC   =       -15.11967695
  -exchange      EXHF   =         0.00000000
  -V(xc)+E(xc)   XCENC  =       -18.06840539
  PAW double counting   =       838.49348616     -803.51527564
  entropy T*S    EENTRO =        -0.00000000
  eigenvalues    EBANDS =         4.88994581
  atomic energy  EATOM  =       206.13270273
  Solvation  Ediel_sol  =         0.00000000
  ---------------------------------------------------
  free energy    TOTEN  =       -10.84898070 eV

  energy without entropy =      -10.84898070  energy(sigma->0) =      -10.84898070


--------------------------------------------------------------------------------------------------------




--------------------------------------- Iteration      1(   9)  ---------------------------------------


    POTLOK:  cpu time      0.0315: real time      0.0608
    SETDIJ:  cpu time      0.0022: real time      0.0022
     EDDAV:  cpu time      0.5889: real time      0.5929
       DOS:  cpu time      0.0002: real time      0.0002
    CHARGE:  cpu time      0.0381: real time      0.0384
    MIXING:  cpu time      0.0012: real time      0.0012
    --------------------------------------------
      LOOP:  cpu time      0.6622: real time      0.6957

 eigenvalue-minimisations  :  1120
 total energy-change (2. order) :-0.1966757E-03  (-0.1941328E-04)
 number of electron       8.0000001 magnetization 
 augmentation part       -0.4583094 magnetization 

 Broyden mixing:
  rms(total) = 0.55451E-02    rms(broyden)= 0.55451E-02
  rms(prec ) = 0.64447E-02
  weight for this iteration     100.00

 eigenvalues of (default mixing * dielectric matrix)
  average eigenvalue GAMMA=   2.1195
  0.9513  2.5965  2.5965  2.3339

 Free energy of the ion-electron system (eV)
  ---------------------------------------------------
  alpha Z        PSCENC =         3.29363716
  Ewald energy   TEWEN  =      -226.95539459
  -Hartree energ DENC   =       -15.16404569
  -exchange      EXHF   =         0.00000000
  -V(xc)+E(xc)   XCENC  =       -18.05997844
  PAW double counting   =       839.93290679     -804.95241826
  entropy T*S    EENTRO =        -0.00000000
  eigenvalues    EBANDS =         4.92341292
  atomic energy  EATOM  =       206.13270273
  Solvation  Ediel_sol  =         0.00000000
  ---------------------------------------------------
  free energy    TOTEN  =       -10.84917737 eV

  energy without entropy =      -10.84917737  energy(sigma->0) =      -10.84917737


--------------------------------------------------------------------------------------------------------




--------------------------------------- Iteration      1(  10)  ---------------------------------------


    POTLOK:  cpu time      0.0308: real time      0.0328
    SETDIJ:  cpu time      0.0020: real time      0.0020
     EDDAV:  cpu time      0.4958: real time      0.4991
       DOS:  cpu time      0.0002: real time      0.0002
    CHARGE:  cpu time      0.0382: real time      0.0384
    MIXING:  cpu time      0.0013: real time      0.0013
    --------------------------------------------
      LOOP:  cpu time      0.5682: real time      0.5737

 eigenvalue-minimisations  :   896
 total energy-change (2. order) :-0.2615644E-04  (-0.3139527E-05)
 number of electron       8.0000001 magnetization 
 augmentation part       -0.4582862 magnetization 

 Broyden mixing:
  rms(total) = 0.89662E-03    rms(broyden)= 0.89662E-03
  rms(prec ) = 0.99040E-03
  weight for this iteration     100.00

 eigenvalues of (default mixing * dielectric matrix)
  average eigenvalue GAMMA=   1.9108
  2.9090  2.4339  2.0635  1.0737  1.0737

 Free energy of the ion-electron system (eV)
  ---------------------------------------------------
  alpha Z        PSCENC =         3.29363716
  Ewald energy   TEWEN  =      -226.95539459
  -Hartree energ DENC   =       -15.17186554
  -exchange      EXHF   =         0.00000000
  -V(xc)+E(xc)   XCENC  =       -18.05967073
  PAW double counting   =       828.90254622     -793.92193611
  entropy T*S    EENTRO =        -0.00000000
  eigenvalues    EBANDS =         4.93077733
  atomic energy  EATOM  =       206.13270273
  Solvation  Ediel_sol  =         0.00000000
  ---------------------------------------------------
  free energy    TOTEN  =       -10.84920353 eV

  energy without entropy =      -10.84920353  energy(sigma->0) =      -10.84920353


--------------------------------------------------------------------------------------------------------




--------------------------------------- Iteration      1(  11)  ---------------------------------------


    POTLOK:  cpu time      0.0347: real time      0.0353
    SETDIJ:  cpu time      0.0019: real time      0.0019
     EDDAV:  cpu time      0.6163: real time      0.6205
       DOS:  cpu time      0.0002: real time      0.0003
    CHARGE:  cpu time      0.0381: real time      0.0383
    MIXING:  cpu time      0.0012: real time      0.0012
    --------------------------------------------
      LOOP:  cpu time      0.6925: real time      0.6975

 eigenvalue-minimisations  :  1184
 total energy-change (2. order) : 0.2664976E-06  (-0.5452854E-07)
 number of electron       8.0000001 magnetization 
 augmentation part       -0.4583019 magnetization 

 Broyden mixing:
  rms(total) = 0.21833E-03    rms(broyden)= 0.21833E-03
  rms(prec ) = 0.44354E-03
  weight for this iteration     100.00

 eigenvalues of (default mixing * dielectric matrix)
  average eigenvalue GAMMA=   2.1420
  3.2326  2.9655  2.4660  2.2633  0.9775  0.9473

 Free energy of the ion-electron system (eV)
  ---------------------------------------------------
  alpha Z        PSCENC =         3.29363716
  Ewald energy   TEWEN  =      -226.95539459
  -Hartree energ DENC   =       -15.17053961
  -exchange      EXHF   =         0.00000000
  -V(xc)+E(xc)   XCENC  =       -18.05973413
  PAW double counting   =       830.17979401     -795.19874927
  entropy T*S    EENTRO =        -0.00000000
  eigenvalues    EBANDS =         4.92908045
  atomic energy  EATOM  =       206.13270273
  Solvation  Ediel_sol  =         0.00000000
  ---------------------------------------------------
  free energy    TOTEN  =       -10.84920326 eV

  energy without entropy =      -10.84920326  energy(sigma->0) =      -10.84920326


--------------------------------------------------------------------------------------------------------




--------------------------------------- Iteration      1(  12)  ---------------------------------------


    POTLOK:  cpu time      0.0306: real time      0.0864
    SETDIJ:  cpu time      0.0019: real time      0.0019
     EDDAV:  cpu time      0.4951: real time      0.4985
       DOS:  cpu time      0.0002: real time      0.0002
    CHARGE:  cpu time      0.0382: real time      0.0384
    MIXING:  cpu time      0.0012: real time      0.0013
    --------------------------------------------
      LOOP:  cpu time      0.5673: real time      0.6267

 eigenvalue-minimisations  :   896
 total energy-change (2. order) :-0.3485389E-06  (-0.5920411E-07)
 number of electron       8.0000001 magnetization 
 augmentation part       -0.4582907 magnetization 

 Broyden mixing:
  rms(total) = 0.91421E-04    rms(broyden)= 0.91421E-04
  rms(prec ) = 0.94429E-04
  weight for this iteration     100.00

 eigenvalues of (default mixing * dielectric matrix)
  average eigenvalue GAMMA=   1.9133
  3.2491  2.6929  2.4637  2.2472  0.9893  0.9893  0.7618

 Free energy of the ion-electron system (eV)
  ---------------------------------------------------
  alpha Z        PSCENC =         3.29363716
  Ewald energy   TEWEN  =      -226.95539459
  -Hartree energ DENC   =       -15.17217391
  -exchange      EXHF   =         0.00000000
  -V(xc)+E(xc)   XCENC  =       -18.05972514
  PAW double counting   =       830.10353203     -795.12250841
  entropy T*S    EENTRO =        -0.00000000
  eigenvalues    EBANDS =         4.93072652
  atomic energy  EATOM  =       206.13270273
  Solvation  Ediel_sol  =         0.00000000
  ---------------------------------------------------
  free energy    TOTEN  =       -10.84920361 eV

  energy without entropy =      -10.84920361  energy(sigma->0) =      -10.84920361


--------------------------------------------------------------------------------------------------------




--------------------------------------- Iteration      1(  13)  ---------------------------------------


    POTLOK:  cpu time      0.1244: real time      0.2036
    SETDIJ:  cpu time      0.0019: real time      0.0019
     EDDAV:  cpu time      0.5978: real time      0.6019
       DOS:  cpu time      0.0002: real time      0.0002
    CHARGE:  cpu time      0.0381: real time      0.0384
    MIXING:  cpu time      0.0013: real time      0.0013
    --------------------------------------------
      LOOP:  cpu time      0.7638: real time      0.8474

 eigenvalue-minimisations  :  1144
 total energy-change (2. order) :-0.1400952E-07  (-0.2058248E-09)
 number of electron       8.0000001 magnetization 
 augmentation part       -0.4582905 magnetization 

 Broyden mixing:
  rms(total) = 0.19994E-04    rms(broyden)= 0.19994E-04
  rms(prec ) = 0.22536E-04
  weight for this iteration     100.00

 eigenvalues of (default mixing * dielectric matrix)
  average eigenvalue GAMMA=   2.0098
  3.2660  2.8057  2.5368  2.2843  2.2843  0.9950  0.9532  0.9532

 Free energy of the ion-electron system (eV)
  ---------------------------------------------------
  alpha Z        PSCENC =         3.29363716
  Ewald energy   TEWEN  =      -226.95539459
  -Hartree energ DENC   =       -15.17216265
  -exchange      EXHF   =         0.00000000
  -V(xc)+E(xc)   XCENC  =       -18.05972102
  PAW double counting   =       829.97053707     -794.98952296
  entropy T*S    EENTRO =        -0.00000000
  eigenvalues    EBANDS =         4.93072064
  atomic energy  EATOM  =       206.13270273
  Solvation  Ediel_sol  =         0.00000000
  ---------------------------------------------------
  free energy    TOTEN  =       -10.84920363 eV

  energy without entropy =      -10.84920363  energy(sigma->0) =      -10.84920363


--------------------------------------------------------------------------------------------------------




--------------------------------------- Iteration      1(  14)  ---------------------------------------


    POTLOK:  cpu time      0.0305: real time      0.0403
    SETDIJ:  cpu time      0.0019: real time      0.0019
     EDDAV:  cpu time      0.5075: real time      0.5110
       DOS:  cpu time      0.0002: real time      0.0003
    CHARGE:  cpu time      0.0401: real time      0.0403
    MIXING:  cpu time      0.0017: real time      0.0017
    --------------------------------------------
      LOOP:  cpu time      0.5820: real time      0.5954

 eigenvalue-minimisations  :   912
 total energy-change (2. order) :-0.3686068E-08  (-0.2699996E-10)
 number of electron       8.0000001 magnetization 
 augmentation part       -0.4582907 magnetization 

 Broyden mixing:
  rms(total) = 0.53839E-05    rms(broyden)= 0.53839E-05
  rms(prec ) = 0.63915E-05
  weight for this iteration     100.00

 eigenvalues of (default mixing * dielectric matrix)
  average eigenvalue GAMMA=   1.9104
  3.2538  2.7500  2.5281  2.5281  2.2552  1.0405  0.9683  0.9350  0.9350

 Free energy of the ion-electron system (eV)
  ---------------------------------------------------
  alpha Z        PSCENC =         3.29363716
  Ewald energy   TEWEN  =      -226.95539459
  -Hartree energ DENC   =       -15.17213661
  -exchange      EXHF   =         0.00000000
  -V(xc)+E(xc)   XCENC  =       -18.05971965
  PAW double counting   =       830.01471461     -795.03370013
  entropy T*S    EENTRO =        -0.00000000
  eigenvalues    EBANDS =         4.93069285
  atomic energy  EATOM  =       206.13270273
  Solvation  Ediel_sol  =         0.00000000
  ---------------------------------------------------
  free energy    TOTEN  =       -10.84920363 eV

  energy without entropy =      -10.84920363  energy(sigma->0) =      -10.84920363


--------------------------------------------------------------------------------------------------------




--------------------------------------- Iteration      1(  15)  ---------------------------------------


    POTLOK:  cpu time      0.0314: real time      0.0688
    SETDIJ:  cpu time      0.0022: real time      0.0022
     EDDAV:  cpu time      0.4351: real time      0.4381
       DOS:  cpu time      0.0003: real time      0.0003
    CHARGE:  cpu time      0.0383: real time      0.0385
    MIXING:  cpu time      0.0015: real time      0.0015
    --------------------------------------------
      LOOP:  cpu time      0.5088: real time      0.5494

 eigenvalue-minimisations  :   728
 total energy-change (2. order) :-0.1268859E-08  (-0.2335091E-11)
 number of electron       8.0000001 magnetization 
 augmentation part       -0.4582909 magnetization 

 Broyden mixing:
  rms(total) = 0.11092E-05    rms(broyden)= 0.11092E-05
  rms(prec ) = 0.12178E-05
  weight for this iteration     100.00

 eigenvalues of (default mixing * dielectric matrix)
  average eigenvalue GAMMA=   1.9989
  3.2556  2.6742  2.6742  2.6086  2.6086  2.2539  1.0148  0.9965  0.9512  0.9512

 Free energy of the ion-electron system (eV)
  ---------------------------------------------------
  alpha Z        PSCENC =         3.29363716
  Ewald energy   TEWEN  =      -226.95539459
  -Hartree energ DENC   =       -15.17211912
  -exchange      EXHF   =         0.00000000
  -V(xc)+E(xc)   XCENC  =       -18.05971932
  PAW double counting   =       830.01608547     -795.03507115
  entropy T*S    EENTRO =        -0.00000000
  eigenvalues    EBANDS =         4.93067520
  atomic energy  EATOM  =       206.13270273
  Solvation  Ediel_sol  =         0.00000000
  ---------------------------------------------------
  free energy    TOTEN  =       -10.84920363 eV

  energy without entropy =      -10.84920363  energy(sigma->0) =      -10.84920363


--------------------------------------------------------------------------------------------------------




--------------------------------------- Iteration      1(  16)  ---------------------------------------


    POTLOK:  cpu time      0.0359: real time      0.0969
    SETDIJ:  cpu time      0.0020: real time      0.0020
     EDDAV:  cpu time      0.3728: real time      0.3753
       DOS:  cpu time      0.0002: real time      0.0003
    CHARGE:  cpu time      0.0381: real time      0.0383
    MIXING:  cpu time      0.0014: real time      0.0014
    --------------------------------------------
      LOOP:  cpu time      0.4504: real time      0.5142

 eigenvalue-minimisations  :   584
 total energy-change (2. order) : 0.4031335E-09  (-0.2975731E-13)
 number of electron       8.0000001 magnetization 
 augmentation part       -0.4582909 magnetization 

 Broyden mixing:
  rms(total) = 0.31074E-06    rms(broyden)= 0.31074E-06
  rms(prec ) = 0.32467E-06
  weight for this iteration     100.00

 eigenvalues of (default mixing * dielectric matrix)
  average eigenvalue GAMMA=   1.8793
  3.2457  2.8733  2.5737  2.5737  2.4277  2.2829  1.0283  0.9987  0.9515  0.9515
  0.7656

 Free energy of the ion-electron system (eV)
  ---------------------------------------------------
  alpha Z        PSCENC =         3.29363716
  Ewald energy   TEWEN  =      -226.95539459
  -Hartree energ DENC   =       -15.17212114
  -exchange      EXHF   =         0.00000000
  -V(xc)+E(xc)   XCENC  =       -18.05971926
  PAW double counting   =       830.01396429     -795.03294989
  entropy T*S    EENTRO =        -0.00000000
  eigenvalues    EBANDS =         4.93067707
  atomic energy  EATOM  =       206.13270273
  Solvation  Ediel_sol  =         0.00000000
  ---------------------------------------------------
  free energy    TOTEN  =       -10.84920363 eV

  energy without entropy =      -10.84920363  energy(sigma->0) =      -10.84920363


--------------------------------------------------------------------------------------------------------




--------------------------------------- Iteration      1(  17)  ---------------------------------------


    POTLOK:  cpu time      0.0306: real time      0.0317
    SETDIJ:  cpu time      0.0019: real time      0.0019
     EDDAV:  cpu time      0.3538: real time      0.3563
       DOS:  cpu time      0.0002: real time      0.0002
    CHARGE:  cpu time      0.0381: real time      0.0383
    MIXING:  cpu time      0.0015: real time      0.0015
    --------------------------------------------
      LOOP:  cpu time      0.4263: real time      0.4301

 eigenvalue-minimisations  :   536
 total energy-change (2. order) : 0.1529088E-09  (-0.2698930E-13)
 number of electron       8.0000001 magnetization 
 augmentation part       -0.4582909 magnetization 

 Broyden mixing:
  rms(total) = 0.10392E-06    rms(broyden)= 0.10392E-06
  rms(prec ) = 0.12747E-06
  weight for this iteration     100.00

 eigenvalues of (default mixing * dielectric matrix)
  average eigenvalue GAMMA=   1.8825
  3.2618  2.7849  2.6016  2.6016  2.5472  2.2496  1.5718  0.9546  0.9546  0.9952
  0.9952  1.0716

 Free energy of the ion-electron system (eV)
  ---------------------------------------------------
  alpha Z        PSCENC =         3.29363716
  Ewald energy   TEWEN  =      -226.95539459
  -Hartree energ DENC   =       -15.17212077
  -exchange      EXHF   =         0.00000000
  -V(xc)+E(xc)   XCENC  =       -18.05971936
  PAW double counting   =       830.01334354     -795.03232908
  entropy T*S    EENTRO =        -0.00000000
  eigenvalues    EBANDS =         4.93067675
  atomic energy  EATOM  =       206.13270273
  Solvation  Ediel_sol  =         0.00000000
  ---------------------------------------------------
  free energy    TOTEN  =       -10.84920363 eV

  energy without entropy =      -10.84920363  energy(sigma->0) =      -10.84920363


--------------------------------------------------------------------------------------------------------




--------------------------------------- Iteration      1(  18)  ---------------------------------------


    POTLOK:  cpu time      0.0305: real time      0.0321
    SETDIJ:  cpu time      0.0019: real time      0.0019
     EDDAV:  cpu time      0.3170: real time      0.3190
       DOS:  cpu time      0.0002: real time      0.0002
    --------------------------------------------
      LOOP:  cpu time      0.3495: real time      0.3532

 eigenvalue-minimisations  :   448
 total energy-change (2. order) :-0.4513367E-10  (-0.6004641E-13)
 number of electron       8.0000001 magnetization 
 augmentation part       -0.4582909 magnetization 

 Free energy of the ion-electron system (eV)
  ---------------------------------------------------
  alpha Z        PSCENC =         3.29363716
  Ewald energy   TEWEN  =      -226.95539459
  -Hartree energ DENC   =       -15.17212134
  -exchange      EXHF   =         0.00000000
  -V(xc)+E(xc)   XCENC  =       -18.05971932
  PAW double counting   =       830.01318778     -795.03217338
  entropy T*S    EENTRO =        -0.00000000
  eigenvalues    EBANDS =         4.93067732
  atomic energy  EATOM  =       206.13270273
  Solvation  Ediel_sol  =         0.00000000
  ---------------------------------------------------
  free energy    TOTEN  =       -10.84920363 eV

  energy without entropy =      -10.84920363  energy(sigma->0) =      -10.84920363


--------------------------------------------------------------------------------------------------------




 average (electrostatic) potential at core
  the test charge radii are     0.9892
  (the norm of the test charge is              1.0000)
       1 -83.4811       2 -83.4811
 
 
 
 E-fermi :   5.7966     XC(G=0):  -9.3277     alpha+bet :-11.7333

 Fermi energy:         5.7965732998

 k-point     1 :       0.0000    0.0000    0.0000
  band No.  band energies     occupation 
      1      -6.1980      2.00000
      2       5.6176      2.00000
      3       5.6176      2.00000
      4       5.6176      2.00000
      5       8.1745      0.00000
      6       8.1745      0.00000
      7       8.1745      0.00000
      8       8.7530      0.00000

 k-point     2 :       0.1000    0.0000    0.0000
  band No.  band energies     occupation 
      1      -6.0694      2.00000
      2       4.4755      2.00000
      3       5.4238      2.00000
      4       5.4238      2.00000
      5       8.1408      0.00000
      6       8.4603      0.00000
      7       8.4603      0.00000
      8       9.7228      0.00000

 k-point     3 :       0.2000    0.0000    0.0000
  band No.  band energies     occupation 
      1      -5.6900      2.00000
      2       2.6356      2.00000
      3       5.0500      2.00000
      4       5.0500      2.00000
      5       7.7706      0.00000
      6       8.9622      0.00000
      7       8.9622      0.00000
      8      11.4973      0.00000

 k-point     4 :       0.3000    0.0000    0.0000
  band No.  band energies     occupation 
      1      -5.0865      2.00000
      2       0.8773      2.00000
      3       4.7198      2.00000
      4       4.7198      2.00000
      5       7.4070      0.00000
      6       9.1427      0.00000
      7       9.1427      0.00000
      8      13.1191      0.00000

 k-point     5 :       0.4000    0.0000    0.0000
  band No.  band energies     occupation 
      1      -4.3567      2.00000
      2      -0.5710      2.00000
      3       4.5100      2.00000
      4       4.5100      2.00000
      5       7.1671      0.00000
      6       9.0382      0.00000
      7       9.0382      0.00000
      8      13.4232      0.00000

 k-point     6 :       0.5000    0.0000    0.0000
  band No.  band energies     occupation 
      1      -3.9190      2.00000
      2      -1.2516      2.00000
      3       4.4391      2.00000
      4       4.4391      2.00000
      5       7.0848      0.00000
      6       8.9670      0.00000
      7       8.9670      0.00000
      8      13.3202      0.00000

 k-point     7 :       0.1000    0.1000    0.0000
  band No.  band energies     occupation 
      1      -6.0263      2.00000
      2       4.6621      2.00000
      3       5.0560      2.00000
      4       5.0560      2.00000
      5       7.8027      0.00000
      6       8.9470      0.00000
      7       8.9470      0.00000
      8       9.6075      0.00000

 k-point     8 :       0.2000    0.1000    0.0000
  band No.  band energies     occupation 
      1      -5.7292      2.00000
      2       3.1761      2.00000
      3       4.6295      2.00000
      4       4.7875      2.00000
      5       7.8570      0.00000
      6       8.9564      0.00000
      7       9.5908      0.00000
      8      10.5310      0.00000

 k-point     9 :       0.3000    0.1000    0.0000
  band No.  band energies     occupation 
      1      -5.1959      2.00000
      2       1.4452      2.00000
      3       4.3152      2.00000
      4       4.3597      2.00000
      5       7.9652      0.00000
      6       8.9596      0.00000
      7       9.8776      0.00000
      8      10.9197      0.00000

 k-point    10 :       0.4000    0.1000    0.0000
  band No.  band energies     occupation 
      1      -4.4873      2.00000
      2      -0.0991      2.00000
      3       3.9545      2.00000
      4       4.1687      2.00000
      5       7.8085      0.00000
      6       8.9475      0.00000
      7       9.7139      0.00000
      8      11.9646      0.00000

 k-point    11 :       0.5000    0.1000    0.0000
  band No.  band energies     occupation 
      1      -3.8643      2.00000
      2      -1.1122      2.00000
      3       3.6699      2.00000
      4       4.1994      2.00000
      5       7.7151      0.00000
      6       8.9282      0.00000
      7       9.4570      0.00000
      8      13.3580      0.00000

 k-point    12 :      -0.4000    0.1000    0.0000
  band No.  band energies     occupation 
      1      -4.0263      2.00000
      2      -0.8699      2.00000
      3       3.5460      2.00000
      4       4.3942      2.00000
      5       7.7699      0.00000
      6       9.0624      0.00000
      7       9.3041      0.00000
      8      13.6097      0.00000

 k-point    13 :      -0.3000    0.1000    0.0000
  band No.  band energies     occupation 
      1      -4.7371      2.00000
      2       0.3853      2.00000
      3       3.6082      2.00000
      4       4.7221      2.00000
      5       7.9693      0.00000
      6       9.2270      0.00000
      7       9.3059      0.00000
      8      12.5490      0.00000

 k-point    14 :      -0.2000    0.1000    0.0000
  band No.  band energies     occupation 
      1      -5.3994      2.00000
      2       2.0049      2.00000
      3       3.8835      2.00000
      4       5.1207      2.00000
      5       8.2768      0.00000
      6       8.9743      0.00000
      7       9.3014      0.00000
      8      11.4887      0.00000

 k-point    15 :      -0.1000    0.1000    0.0000
  band No.  band energies     occupation 
      1      -5.8567      2.00000
      2       3.5907      2.00000
      3       4.4864      2.00000
      4       5.4422      2.00000
      5       8.5283      0.00000
      6       8.5296      0.00000
      7       8.7074      0.00000
      8      10.6681      0.00000

 k-point    16 :       0.2000    0.2000    0.0000
  band No.  band energies     occupation 
      1      -5.5149      2.00000
      2       2.9830      2.00000
      3       4.1631      2.00000
      4       4.1631      2.00000
      5       7.0938      0.00000
      6       9.4710      0.00000
      7      10.4590      0.00000
      8      10.4590      0.00000

 k-point    17 :       0.3000    0.2000    0.0000
  band No.  band energies     occupation 
      1      -5.0577      2.00000
      2       1.7606      2.00000
      3       3.6606      2.00000
      4       3.8207      2.00000
      5       7.1897      0.00000
      6       9.0625      0.00000
      7      10.7092      0.00000
      8      11.0473      0.00000

 k-point    18 :       0.4000    0.2000    0.0000
  band No.  band energies     occupation 
      1      -4.3958      2.00000
      2       0.3539      2.00000
      3       3.0405      2.00000
      4       3.6629      2.00000
      5       7.4045      0.00000
      6       9.6875      0.00000
      7      10.4786      0.00000
      8      11.0138      0.00000

 k-point    19 :       0.5000    0.2000    0.0000
  band No.  band energies     occupation 
      1      -3.6826      2.00000
      2      -0.8026      2.00000
      3       2.5391      2.00000
      4       3.7049      2.00000
      5       7.4683      0.00000
      6      10.2597      0.00000
      7      10.6964      0.00000
      8      11.2134      0.00000

 k-point    20 :      -0.4000    0.2000    0.0000
  band No.  band energies     occupation 
      1      -3.5348      2.00000
      2      -1.0046      2.00000
      3       2.2479      2.00000
      4       3.9376      2.00000
      5       7.6761      0.00000
      6      10.1648      0.00000
      7      10.3982      0.00000
      8      13.1127      0.00000

 k-point    21 :      -0.3000    0.2000    0.0000
  band No.  band energies     occupation 
      1      -4.1715      2.00000
      2      -0.0426      2.00000
      3       2.2332      2.00000
      4       4.3263      2.00000
      5       8.0582      0.00000
      6      10.1222      0.00000
      7      10.1797      0.00000
      8      12.2359      0.00000

 k-point    22 :      -0.2000    0.2000    0.0000
  band No.  band energies     occupation 
      1      -4.8743      2.00000
      2       1.1709      2.00000
      3       2.6839      2.00000
      4       4.7865      2.00000
      5       8.4688      0.00000
      6       9.5833      0.00000
      7       9.8875      0.00000
      8      11.2751      0.00000

 k-point    23 :       0.3000    0.3000    0.0000
  band No.  band energies     occupation 
      1      -4.6764      2.00000
      2       1.2135      2.00000
      3       3.4351      2.00000
      4       3.4351      2.00000
      5       6.5070      0.00000
      6       8.0538      0.00000
      7      12.1894      0.00000
      8      12.1894      0.00000

 k-point    24 :       0.4000    0.3000    0.0000
  band No.  band energies     occupation 
      1      -4.0751      2.00000
      2       0.2248      2.00000
      3       2.8237      2.00000
      4       3.2335      2.00000
      5       6.6944      0.00000
      6       7.8832      0.00000
      7      12.4735      0.00000
      8      12.6138      0.00000

 k-point    25 :       0.5000    0.3000    0.0000
  band No.  band energies     occupation 
      1      -3.3412      2.00000
      2      -0.7610      2.00000
      3       2.0139      2.00000
      4       3.2393      2.00000
      5       6.8756      0.00000
      6       8.9939      0.00000
      7      12.2879      0.00000
      8      12.3756      0.00000

 k-point    26 :      -0.4000    0.3000    0.0000
  band No.  band energies     occupation 
      1      -2.9352      2.00000
      2      -1.2230      2.00000
      3       1.4732      2.00000
      4       3.4502      2.00000
      5       7.1037      0.00000
      6      10.7788      0.00000
      7      11.9802      0.00000
      8      12.1277      0.00000

 k-point    27 :      -0.3000    0.3000    0.0000
  band No.  band energies     occupation 
      1      -3.4608      2.00000
      2      -0.6453      2.00000
      3       1.4487      2.00000
      4       3.8382      2.00000
      5       7.5361      0.00000
      6      11.3120      0.00000
      7      11.6230      0.00000
      8      12.3454      0.00000

 k-point    28 :       0.4000    0.4000    0.0000
  band No.  band energies     occupation 
      1      -3.5347      2.00000
      2      -0.5198      2.00000
      3       2.9781      2.00000
      4       2.9781      2.00000
      5       6.2353      0.00000
      6       6.9669      0.00000
      7      14.0188      0.00000
      8      14.0188      0.00000

 k-point    29 :       0.5000    0.4000    0.0000
  band No.  band energies     occupation 
      1      -2.8200      2.00000
      2      -1.3460      2.00000
      3       2.4090      2.00000
      4       2.9301      2.00000
      5       6.4711      0.00000
      6       7.2164      0.00000
      7      14.2681      0.00000
      8      14.3452      0.00000

 k-point    30 :      -0.4000    0.4000    0.0000
  band No.  band energies     occupation 
      1      -2.3591      2.00000
      2      -1.7559      2.00000
      3       1.6479      2.00000
      4       3.0940      2.00000
      5       6.6812      0.00000
      6       8.7665      0.00000
      7      13.6151      0.00000
      8      14.1904      0.00000

 k-point    31 :       0.5000    0.5000    0.0000
  band No.  band energies     occupation 
      1      -2.1291      2.00000
      2      -2.1291      2.00000
      3       2.8232      2.00000
      4       2.8232      2.00000
      5       6.3690      0.00000
      6       6.3690      0.00000
      7      15.5553      0.00000
      8      15.5553      0.00000

 k-point    32 :       0.3000    0.2000    0.1000
  band No.  band energies     occupation 
      1      -5.3528      2.00000
      2       2.2560      2.00000
      3       3.5845      2.00000
      4       4.6621      2.00000
      5       7.9626      0.00000
      6       9.2672      0.00000
      7      10.2159      0.00000
      8      10.2368      0.00000

 k-point    33 :       0.4000    0.2000    0.1000
  band No.  band energies     occupation 
      1      -4.7532      2.00000
      2       0.8734      2.00000
      3       3.0008      2.00000
      4       4.2964      2.00000
      5       8.3027      0.00000
      6       9.1848      0.00000
      7      10.3096      0.00000
      8      10.7022      0.00000

 k-point    34 :       0.5000    0.2000    0.1000
  band No.  band energies     occupation 
      1      -4.0232      2.00000
      2      -0.4597      2.00000
      3       2.7669      2.00000
      4       3.9556      2.00000
      5       8.3412      0.00000
      6       8.8954      0.00000
      7      10.6292      0.00000
      8      11.6305      0.00000

 k-point    35 :      -0.4000    0.2000    0.1000
  band No.  band energies     occupation 
      1      -3.5777      2.00000
      2      -1.1194      2.00000
      3       2.7057      2.00000
      4       3.8216      2.00000
      5       8.3539      0.00000
      6       8.7317      0.00000
      7      10.5923      0.00000
      8      13.3493      0.00000

 k-point    36 :       0.4000    0.3000    0.1000
  band No.  band energies     occupation 
      1      -4.5300      2.00000
      2       0.8674      2.00000
      3       2.8715      2.00000
      4       3.5765      2.00000
      5       7.4042      0.00000
      6       8.6841      0.00000
      7      10.7586      0.00000
      8      12.0821      0.00000

 k-point    37 :       0.5000    0.3000    0.1000
  band No.  band energies     occupation 
      1      -3.8247      2.00000
      2      -0.2130      2.00000
      3       2.2629      2.00000
      4       3.2571      2.00000
      5       7.7848      0.00000
      6       9.3705      0.00000
      7      10.3845      0.00000
      8      12.4736      0.00000

 k-point    38 :      -0.4000    0.3000    0.1000
  band No.  band energies     occupation 
      1      -3.1918      2.00000
      2      -1.0531      2.00000
      3       1.8607      2.00000
      4       3.2029      2.00000
      5       7.9646      0.00000
      6       9.9573      0.00000
      7      11.0805      0.00000
      8      12.4017      0.00000

 k-point    39 :      -0.3000    0.3000    0.1000
  band No.  band energies     occupation 
      1      -3.3881      2.00000
      2      -0.8006      2.00000
      3       1.7160      2.00000
      4       3.4367      2.00000
      5       8.2982      0.00000
      6       9.7028      0.00000
      7      11.5098      0.00000
      8      12.2867      0.00000

 k-point    40 :      -0.2000    0.3000    0.1000
  band No.  band energies     occupation 
      1      -4.1064      2.00000
      2       0.1285      2.00000
      3       2.0141      2.00000
      4       3.8659      2.00000
      5       8.7772      0.00000
      6       9.2557      0.00000
      7      10.3027      0.00000
      8      11.8106      0.00000

 k-point    41 :       0.5000    0.4000    0.1000
  band No.  band energies     occupation 
      1      -3.4197      2.00000
      2      -0.6050      2.00000
      3       2.4689      2.00000
      4       2.7900      2.00000
      5       7.1207      0.00000
      6       7.7140      0.00000
      7      12.2916      0.00000
      8      14.0050      0.00000

 k-point    42 :      -0.4000    0.4000    0.1000
  band No.  band energies     occupation 
      1      -2.6983      2.00000
      2      -1.3658      2.00000
      3       1.7870      2.00000
      4       2.7009      2.00000
      5       7.4710      0.00000
[...]
      8      12.5481      0.00000

 k-point    14 :      -0.2000    0.1000    0.0000
  band No.  band energies     occupation 
      1      -5.3996      2.00000
      2       2.0044      2.00000
      3       3.8830      2.00000
      4       5.1201      2.00000
      5       8.2760      0.00000
      6       8.9736      0.00000
      7       9.3007      0.00000
      8      11.4879      0.00000

 k-point    15 :      -0.1000    0.1000    0.0000
  band No.  band energies     occupation 
      1      -5.8569      2.00000
      2       3.5901      2.00000
      3       4.4859      2.00000
      4       5.4416      2.00000
      5       8.5277      0.00000
      6       8.5288      0.00000
      7       8.7067      0.00000
      8      10.6671      0.00000

 k-point    16 :       0.2000    0.2000    0.0000
  band No.  band energies     occupation 
      1      -5.5151      2.00000
      2       2.9824      2.00000
      3       4.1626      2.00000
      4       4.1626      2.00000
      5       7.0933      0.00000
      6       9.4703      0.00000
      7      10.4583      0.00000
      8      10.4583      0.00000

 k-point    17 :       0.3000    0.2000    0.0000
  band No.  band energies     occupation 
      1      -5.0579      2.00000
      2       1.7600      2.00000
      3       3.6601      2.00000
      4       3.8202      2.00000
      5       7.1892      0.00000
      6       9.0619      0.00000
      7      10.7085      0.00000
      8      11.0466      0.00000

 k-point    18 :       0.4000    0.2000    0.0000
  band No.  band energies     occupation 
      1      -4.3961      2.00000
      2       0.3534      2.00000
      3       3.0401      2.00000
      4       3.6624      2.00000
      5       7.4040      0.00000
      6       9.6868      0.00000
      7      10.4778      0.00000
      8      11.0131      0.00000

 k-point    19 :       0.5000    0.2000    0.0000
  band No.  band energies     occupation 
      1      -3.6830      2.00000
      2      -0.8030      2.00000
      3       2.5387      2.00000
      4       3.7044      2.00000
      5       7.4677      0.00000
      6      10.2589      0.00000
      7      10.6958      0.00000
      8      11.2127      0.00000

 k-point    20 :      -0.4000    0.2000    0.0000
  band No.  band energies     occupation 
      1      -3.5352      2.00000
      2      -1.0050      2.00000
      3       2.2474      2.00000
      4       3.9371      2.00000
      5       7.6755      0.00000
      6      10.1640      0.00000
      7      10.3975      0.00000
      8      13.1119      0.00000

 k-point    21 :      -0.3000    0.2000    0.0000
  band No.  band energies     occupation 
      1      -4.1718      2.00000
      2      -0.0430      2.00000
      3       2.2328      2.00000
      4       4.3258      2.00000
      5       8.0576      0.00000
      6      10.1216      0.00000
      7      10.1789      0.00000
      8      12.2350      0.00000

 k-point    22 :      -0.2000    0.2000    0.0000
  band No.  band energies     occupation 
      1      -4.8746      2.00000
      2       1.1704      2.00000
      3       2.6835      2.00000
      4       4.7859      2.00000
      5       8.4681      0.00000
      6       9.5827      0.00000
      7       9.8867      0.00000
      8      11.2743      0.00000

 k-point    23 :       0.3000    0.3000    0.0000
  band No.  band energies     occupation 
      1      -4.6767      2.00000
      2       1.2129      2.00000
      3       3.4346      2.00000
      4       3.4346      2.00000
      5       6.5064      0.00000
      6       8.0533      0.00000
      7      12.1885      0.00000
      8      12.1885      0.00000

 k-point    24 :       0.4000    0.3000    0.0000
  band No.  band energies     occupation 
      1      -4.0755      2.00000
      2       0.2242      2.00000
      3       2.8233      2.00000
      4       3.2330      2.00000
      5       6.6939      0.00000
      6       7.8827      0.00000
      7      12.4726      0.00000
      8      12.6130      0.00000

 k-point    25 :       0.5000    0.3000    0.0000
  band No.  band energies     occupation 
      1      -3.3416      2.00000
      2      -0.7615      2.00000
      3       2.0135      2.00000
      4       3.2389      2.00000
      5       6.8751      0.00000
      6       8.9933      0.00000
      7      12.2870      0.00000
      8      12.3749      0.00000

 k-point    26 :      -0.4000    0.3000    0.0000
  band No.  band energies     occupation 
      1      -2.9355      2.00000
      2      -1.2234      2.00000
      3       1.4728      2.00000
      4       3.4497      2.00000
      5       7.1032      0.00000
      6      10.7781      0.00000
      7      11.9794      0.00000
      8      12.1268      0.00000

 k-point    27 :      -0.3000    0.3000    0.0000
  band No.  band energies     occupation 
      1      -3.4611      2.00000
      2      -0.6458      2.00000
      3       1.4484      2.00000
      4       3.8377      2.00000
      5       7.5355      0.00000
      6      11.3112      0.00000
      7      11.6223      0.00000
      8      12.3445      0.00000

 k-point    28 :       0.4000    0.4000    0.0000
  band No.  band energies     occupation 
      1      -3.5350      2.00000
      2      -0.5202      2.00000
      3       2.9776      2.00000
      4       2.9776      2.00000
      5       6.2348      0.00000
      6       6.9664      0.00000
      7      14.0179      0.00000
      8      14.0179      0.00000

 k-point    29 :       0.5000    0.4000    0.0000
  band No.  band energies     occupation 
      1      -2.8203      2.00000
      2      -1.3464      2.00000
      3       2.4086      2.00000
      4       2.9296      2.00000
      5       6.4706      0.00000
      6       7.2159      0.00000
      7      14.2672      0.00000
      8      14.3442      0.00000

 k-point    30 :      -0.4000    0.4000    0.0000
  band No.  band energies     occupation 
      1      -2.3596      2.00000
      2      -1.7563      2.00000
      3       1.6476      2.00000
      4       3.0935      2.00000
      5       6.6807      0.00000
      6       8.7659      0.00000
      7      13.6142      0.00000
      8      14.1895      0.00000

 k-point    31 :       0.5000    0.5000    0.0000
  band No.  band energies     occupation 
      1      -2.1295      2.00000
      2      -2.1295      2.00000
      3       2.8227      2.00000
      4       2.8227      2.00000
      5       6.3685      0.00000
      6       6.3685      0.00000
      7      15.5542      0.00000
      8      15.5542      0.00000

 k-point    32 :       0.3000    0.2000    0.1000
  band No.  band energies     occupation 
      1      -5.3530      2.00000
      2       2.2554      2.00000
      3       3.5840      2.00000
      4       4.6616      2.00000
      5       7.9620      0.00000
      6       9.2664      0.00000
      7      10.2153      0.00000
      8      10.2361      0.00000

 k-point    33 :       0.4000    0.2000    0.1000
  band No.  band energies     occupation 
      1      -4.7535      2.00000
      2       0.8729      2.00000
      3       3.0003      2.00000
      4       4.2959      2.00000
      5       8.3021      0.00000
      6       9.1841      0.00000
      7      10.3089      0.00000
      8      10.7015      0.00000

 k-point    34 :       0.5000    0.2000    0.1000
  band No.  band energies     occupation 
      1      -4.0235      2.00000
      2      -0.4601      2.00000
      3       2.7665      2.00000
      4       3.9551      2.00000
      5       8.3405      0.00000
      6       8.8948      0.00000
      7      10.6285      0.00000
      8      11.6298      0.00000

 k-point    35 :      -0.4000    0.2000    0.1000
  band No.  band energies     occupation 
      1      -3.5780      2.00000
      2      -1.1197      2.00000
      3       2.7052      2.00000
      4       3.8212      2.00000
      5       8.3531      0.00000
      6       8.7311      0.00000
      7      10.5916      0.00000
      8      13.3480      0.00000

 k-point    36 :       0.4000    0.3000    0.1000
  band No.  band energies     occupation 
      1      -4.5303      2.00000
      2       0.8669      2.00000
      3       2.8711      2.00000
      4       3.5760      2.00000
      5       7.4037      0.00000
      6       8.6835      0.00000
      7      10.7578      0.00000
      8      12.0813      0.00000

 k-point    37 :       0.5000    0.3000    0.1000
  band No.  band energies     occupation 
      1      -3.8250      2.00000
      2      -0.2134      2.00000
      3       2.2625      2.00000
      4       3.2567      2.00000
      5       7.7842      0.00000
      6       9.3699      0.00000
      7      10.3837      0.00000
      8      12.4728      0.00000

 k-point    38 :      -0.4000    0.3000    0.1000
  band No.  band energies     occupation 
      1      -3.1921      2.00000
      2      -1.0535      2.00000
      3       1.8603      2.00000
      4       3.2025      2.00000
      5       7.9640      0.00000
      6       9.9566      0.00000
      7      11.0798      0.00000
      8      12.4008      0.00000

 k-point    39 :      -0.3000    0.3000    0.1000
  band No.  band energies     occupation 
      1      -3.3884      2.00000
      2      -0.8010      2.00000
      3       1.7156      2.00000
      4       3.4363      2.00000
      5       8.2976      0.00000
      6       9.7021      0.00000
      7      11.5090      0.00000
      8      12.2860      0.00000

 k-point    40 :      -0.2000    0.3000    0.1000
  band No.  band energies     occupation 
      1      -4.1067      2.00000
      2       0.1280      2.00000
      3       2.0137      2.00000
      4       3.8654      2.00000
      5       8.7765      0.00000
      6       9.2550      0.00000
      7      10.3020      0.00000
      8      11.8098      0.00000

 k-point    41 :       0.5000    0.4000    0.1000
  band No.  band energies     occupation 
      1      -3.4200      2.00000
      2      -0.6055      2.00000
      3       2.4685      2.00000
      4       2.7896      2.00000
      5       7.1202      0.00000
      6       7.7134      0.00000
      7      12.2907      0.00000
      8      14.0041      0.00000

 k-point    42 :      -0.4000    0.4000    0.1000
  band No.  band energies     occupation 
      1      -2.6987      2.00000
      2      -1.3663      2.00000
      3       1.7866      2.00000
      4       2.7005      2.00000
      5       7.4704      0.00000
      6       8.8951      0.00000
      7      11.8965      0.00000
      8      13.6524      0.00000

 k-point    43 :      -0.3000    0.4000    0.1000
  band No.  band energies     occupation 
      1      -2.7079      2.00000
      2      -1.3368      2.00000
      3       1.3814      2.00000
      4       2.9640      2.00000
      5       7.7918      0.00000
      6      10.7126      0.00000
      7      11.4946      0.00000
      8      11.8331      0.00000

 k-point    44 :      -0.4000    0.5000    0.1000
  band No.  band energies     occupation 
      1      -2.0792      2.00000
      2      -2.0792      2.00000
      3       2.4276      2.00000
      4       2.4276      2.00000
      5       7.2032      0.00000
      6       7.2032      0.00000
      7      14.0042      0.00000
      8      14.0042      0.00000

 k-point    45 :      -0.4000    0.4000    0.2000
  band No.  band energies     occupation 
      1      -3.1085      2.00000
      2      -0.8975      2.00000
      3       1.7278      2.00000
      4       2.6949      2.00000
      5       8.9996      0.00000
      6       9.3968      0.00000
      7       9.9888      0.00000
      8      13.3205      0.00000

 k-point    46 :      -0.3000    0.4000    0.2000
  band No.  band energies     occupation 
      1      -2.6100      2.00000
      2      -1.3968      2.00000
      3       1.5745      2.00000
      4       2.4499      2.00000
      5       9.2930      0.00000
      6       9.5695      0.00000
      7      10.9793      0.00000
      8      11.3855      0.00000

 k-point    47 :      -0.3000    0.5000    0.2000
  band No.  band energies     occupation 
      1      -1.9909      2.00000
      2      -1.9909      2.00000
      3       1.9306      2.00000
      4       1.9306      2.00000
      5       9.0426      0.00000
      6       9.0426      0.00000
      7      11.4792      0.00000
      8      11.4792      0.00000


--------------------------------------------------------------------------------------------------------


 soft charge-density along one line, spin component           1
         0         1         2         3         4         5         6         7         8         9
 total charge-density along one line
 
 pseudopotential strength for first ion, spin component:           1
 18.437  25.723  -0.000  -0.000  -0.000  -0.000  -0.000  -0.000
 25.723  35.893  -0.000  -0.000  -0.000  -0.000  -0.000  -0.000
 -0.000  -0.000   4.181  -0.000  -0.000   7.790  -0.000  -0.000
 -0.000  -0.000  -0.000   4.181  -0.000  -0.000   7.790  -0.000
 -0.000  -0.000  -0.000  -0.000   4.181  -0.000  -0.000   7.790
 -0.000  -0.000   7.790  -0.000  -0.000  14.528  -0.000  -0.000
 -0.000  -0.000  -0.000   7.790  -0.000  -0.000  14.528  -0.000
 -0.000  -0.000  -0.000  -0.000   7.790  -0.000  -0.000  14.528
 total augmentation occupancy for first ion, spin component:           1
  5.528  -2.064   0.000   0.000   0.000   0.000   0.000   0.000
 -2.064   0.887   0.000   0.000   0.000   0.000  -0.000  -0.000
  0.000   0.000   2.904   0.000   0.000  -0.649   0.000  -0.000
  0.000   0.000  -0.000   2.904   0.000   0.000  -0.649   0.000
  0.000   0.000   0.000   0.000   2.904  -0.000  -0.000  -0.649
  0.000  -0.000  -0.649   0.000  -0.000   0.153   0.000   0.000
  0.000  -0.000   0.000  -0.649   0.000   0.000   0.153   0.000
  0.000  -0.000  -0.000  -0.000  -0.649   0.000   0.000   0.153


------------------------ aborting loop because EDIFF is reached ----------------------------------------


    CHARGE:  cpu time      0.0384: real time      0.0386
    FORLOC:  cpu time      0.0015: real time      0.0015
    FORNL :  cpu time      0.0225: real time      0.0226
    STRESS:  cpu time      0.1940: real time      0.1949
    FORCOR:  cpu time      0.0308: real time      0.0309
    FORHAR:  cpu time      0.0071: real time      0.0071
    MIXING:  cpu time      0.0012: real time      0.0012
    OFIELD:  cpu time      0.0001: real time      0.0001

  FORCE on cell =-STRESS in cart. coord.  units (eV):
  Direction    XX          YY          ZZ          XY          YZ          ZX
  --------------------------------------------------------------------------------------
  Alpha Z     3.29344     3.29344     3.29344
  Ewald     -75.65033   -75.65033   -75.65033     0.00000     0.00000     0.00000
  Hartree     5.05761     5.05761     5.05761     0.00000     0.00000     0.00000
  E(xc)     -25.24682   -25.24682   -25.24682     0.00000     0.00000     0.00000
  Local     -29.50837   -29.50837   -29.50837     0.00000     0.00000     0.00000
  n-local    78.46404    79.79746    74.08590     2.18938    -1.25433     0.55013
  augment   -11.64763   -11.64763   -11.64763    -0.00000    -0.00000    -0.00000
  Kinetic    58.38805    55.85834    54.51247     3.55251    -0.70000     1.02524
  Fock        0.00000     0.00000     0.00000     0.00000     0.00000     0.00000
  -------------------------------------------------------------------------------------
  Total       0.00000     0.00000     0.00000    -0.00000     0.00000    -0.00000
  in kB       0.00002     0.00002     0.00002    -0.00000     0.00000    -0.00000
  external pressure =        0.00 kB  Pullay stress =        0.00 kB


 VOLUME and BASIS-vectors are now :
 -----------------------------------------------------------------------------
  energy-cutoff  :      520.00
  volume of cell :       40.89
      direct lattice vectors                 reciprocal lattice vectors
    -0.000000000  2.734291991  2.734291991    -0.182862694  0.182862694  0.182862694
     2.734291991  0.000000000  2.734291991     0.182862694 -0.182862694  0.182862694
     2.734291991  2.734291991  0.000000000     0.182862694  0.182862694 -0.182862694

  length of vectors
     3.866872817  3.866872817  3.866872817     0.316727477  0.316727477  0.316727477


 FORCES acting on ions
    electron-ion (+dipol)            ewald-force                    non-local-force                 convergence-correction
 -----------------------------------------------------------------------------------------------
   0.564E-08 0.564E-08 0.809E-08   -.325E-15 -.901E-15 0.113E-15   0.180E-15 0.132E-15 0.108E-15   -.161E-12 -.158E-12 -.159E-12
   -.564E-08 -.564E-08 -.809E-08   0.471E-15 0.992E-15 -.560E-15   -.153E-15 -.146E-15 -.128E-15   0.156E-12 0.155E-12 0.159E-12
 -----------------------------------------------------------------------------------------------
   -.327E-13 -.581E-13 -.144E-13   0.145E-15 0.902E-16 -.447E-15   0.278E-16 -.139E-16 -.208E-16   -.426E-14 -.262E-14 -.279E-15
 
 
 POSITION                                       TOTAL-FORCE (eV/Angst)
 -----------------------------------------------------------------------------------
     -0.00000     -0.00000     -0.00000        -0.000000     -0.000000     -0.000000
      1.36715      1.36715      1.36715         0.000000      0.000000      0.000000
 -----------------------------------------------------------------------------------
    total drift:                               -0.000000     -0.000000     -0.000000


--------------------------------------------------------------------------------------------------------



  FREE ENERGIE OF THE ION-ELECTRON SYSTEM (eV)
  ---------------------------------------------------
  free  energy   TOTEN  =       -10.84920360 eV

  energy  without entropy=      -10.84920360  energy(sigma->0) =      -10.84920360
 
 d Force = 0.0000000E+00[ 0.000E+00, 0.000E+00]  d Energy = 0.6235223E-07-0.624E-07
 d Force = 0.0000000E+00[ 0.000E+00, 0.000E+00]  d Ewald  = 0.2906442E-02-0.291E-02


--------------------------------------------------------------------------------------------------------


    POTLOK:  cpu time      0.0327: real time      0.0328


--------------------------------------------------------------------------------------------------------


 stress matrix after NEB project (eV)
      0.00000     -0.00000     -0.00000
     -0.00000      0.00000      0.00000
      0.00000      0.00000      0.00000
  FORCES: max atom, RMS     0.000000    0.000000
  FORCE total and by dimension    0.000000    0.000000
  Stress total and by dimension    0.000001    0.000001


--------------------------------------------------------------------------------------------------------


  
 reached required accuracy - stopping structural energy minimisation
     LOOP+:  cpu time      3.7174: real time      4.0631
    4ORBIT:  cpu time      0.0000: real time      0.0000

 total amount of memory used by VASP MPI-rank0    40830. kBytes
=======================================================================

   base      :      30000. kBytes
   nonl-proj :       3392. kBytes
   fftplans  :       1986. kBytes
   grid      :       3744. kBytes
   one-center:          6. kBytes
   wavefun   :       1702. kBytes
 
  
  
 General timing and accounting informations for this job:
 ========================================================
  
                  Total CPU time used (sec):       20.546
                            User time (sec):       20.291
                          System time (sec):        0.255
                         Elapsed time (sec):       23.480
  
                   Maximum memory used (kb):      192796.
                   Average memory used (kb):          N/A
  
                          Minor page faults:        28972
                          Major page faults:          442
                 Voluntary context switches:         2908
