-------------------Job starts at-------------------
 8:31:53 Jan-29-2025
---------------------------------------------------

Lmod is automatically replacing "gcc/12.3" with "intel/2023.2.1".


Lmod is automatically replacing "openmpi/4.1.5" with "intelmpi/2021.9.0".


Due to MODULEPATH changes, the following have been reloaded:
  1) flexiblas/3.3.1

 running    4 mpi-ranks, on    1 nodes
 distrk:  each k-point on    4 cores,    1 groups
 distr:  one band on    1 cores,    4 groups
 vasp.6.4.2 20Jul23 (build Oct 16 2024 22:17:43) complex                        
  
 POSCAR found type information on POSCAR Si
 POSCAR found :  1 types and       2 ions
 Reading from existing POTCAR
 scaLAPACK will be used
 Reading from existing POTCAR
 LDA part: xc-table for Pade appr. of Perdew
 POSCAR found type information on POSCAR Si
 POSCAR found :  1 types and       2 ions
 POSCAR, INCAR and KPOINTS ok, starting setup
 FFT: planning ... GRIDC
 FFT: planning ... GRID_SOFT
 FFT: planning ... GRID
 WAVECAR not read
 entering main loop
       N       E                     dE             d eps       ncg     rms          rms(c)
DAV:   1     0.677759731844E+01    0.67776E+01   -0.32969E+03   752   0.775E+02
DAV:   2    -0.107805340950E+02   -0.17558E+02   -0.17029E+02  1184   0.823E+01
DAV:   3    -0.110163291291E+02   -0.23580E+00   -0.23580E+00   928   0.120E+01
DAV:   4    -0.110174947387E+02   -0.11656E-02   -0.11656E-02  1200   0.950E-01
DAV:   5    -0.110174955653E+02   -0.82659E-06   -0.82659E-06  1000   0.243E-02    0.475E+00
DAV:   6    -0.109015122865E+02    0.11598E+00   -0.75744E-02   896   0.144E+00    0.290E+00
DAV:   7    -0.108478796658E+02    0.53633E-01   -0.14564E-01   944   0.213E+00    0.174E-01
DAV:   8    -0.108489806984E+02   -0.11010E-02   -0.38584E-03   872   0.469E-01    0.737E-02
DAV:   9    -0.108491773741E+02   -0.19668E-03   -0.19413E-04  1120   0.110E-01    0.555E-02
DAV:  10    -0.108492035306E+02   -0.26156E-04   -0.31395E-05   896   0.419E-02    0.897E-03
DAV:  11    -0.108492032641E+02    0.26650E-06   -0.54529E-07  1184   0.521E-03    0.218E-03
DAV:  12    -0.108492036126E+02   -0.34854E-06   -0.59204E-07   896   0.613E-03    0.914E-04
DAV:  13    -0.108492036266E+02   -0.14010E-07   -0.20582E-09  1144   0.389E-04    0.200E-04
DAV:  14    -0.108492036303E+02   -0.36861E-08   -0.27000E-10   912   0.146E-04    0.538E-05
DAV:  15    -0.108492036316E+02   -0.12689E-08   -0.23351E-11   728   0.354E-05    0.111E-05
DAV:  16    -0.108492036312E+02    0.40313E-09   -0.29757E-13   584   0.973E-06    0.311E-06
DAV:  17    -0.108492036310E+02    0.15291E-09   -0.26989E-13   536   0.369E-06    0.104E-06
DAV:  18    -0.108492036311E+02   -0.45134E-10   -0.60046E-13   448   0.148E-06
   1 F= -.10849204E+02 E0= -.10849204E+02  d E =-.108492E+02
 curvature:   0.00 expect dE= 0.000E+00 dE for cont linesearch  0.000E+00
 trial: gam= 0.00000 g(F)=  0.447E-49 g(S)=  0.133E-06 ort = 0.000E+00 (trialstep = 0.100E+01)
 search vector abs. value=  0.133E-06
 bond charge predicted
       N       E                     dE             d eps       ncg     rms          rms(c)
DAV:   1    -0.108492037116E+02   -0.80551E-07   -0.20926E-06   928   0.826E-03    0.137E-03
DAV:   2    -0.108492036473E+02    0.64269E-07   -0.30149E-08   992   0.121E-03    0.831E-04
DAV:   3    -0.108492035650E+02    0.82342E-07   -0.38453E-08   896   0.100E-03    0.276E-04
DAV:   4    -0.108492035601E+02    0.49267E-08   -0.38859E-10  1000   0.178E-04    0.243E-04
DAV:   5    -0.108492035375E+02    0.22504E-07   -0.10070E-10   824   0.747E-05    0.557E-05
DAV:   6    -0.108492035385E+02   -0.96463E-09   -0.25707E-12   440   0.107E-05    0.255E-05
DAV:   7    -0.108492035386E+02   -0.10039E-09   -0.89238E-13   464   0.110E-05    0.121E-05
DAV:   8    -0.108492035386E+02    0.69349E-11   -0.43154E-13   472   0.270E-06
   2 F= -.10849204E+02 E0= -.10849204E+02  d E =0.924766E-07
 trial-energy change:    0.000000  1 .order   -0.000000   -0.000000    0.000000
 step:   0.6084(harm=  0.6084)  dis= 0.00000  next Energy=   -10.849204 (dE=-0.405E-07)
 bond charge predicted
       N       E                     dE             d eps       ncg     rms          rms(c)
DAV:   1    -0.108492035623E+02   -0.23691E-07   -0.32085E-07   896   0.324E-03    0.535E-04
DAV:   2    -0.108492035683E+02   -0.60446E-08   -0.46371E-09  1000   0.475E-04    0.326E-04
DAV:   3    -0.108492035906E+02   -0.22277E-07   -0.59020E-09   880   0.392E-04    0.108E-04
DAV:   4    -0.108492035926E+02   -0.19478E-08   -0.55884E-11   640   0.704E-05    0.930E-05
DAV:   5    -0.108492036013E+02   -0.87423E-08   -0.18307E-11   432   0.337E-05    0.140E-05
DAV:   6    -0.108492036010E+02    0.27831E-09   -0.20919E-12   432   0.108E-05    0.641E-06
DAV:   7    -0.108492036010E+02    0.79467E-10   -0.39341E-13   432   0.521E-06
   3 F= -.10849204E+02 E0= -.10849204E+02  d E =0.301244E-07
 curvature:  -0.30 expect dE=-0.751E-14 dE for cont linesearch -0.751E-14
 trial: gam=-0.00043 g(F)=  0.158E-49 g(S)=  0.247E-13 ort = 0.573E-10 (trialstep = 0.922E+00)
 search vector abs. value=  0.100E-09
 reached required accuracy - stopping structural energy minimisation
--------------------Job ends at--------------------
 8:32:20 Jan-29-2025
---------------------------------------------------
