Cu FCC                                  
   1.00000000000000     
     0.000000    1.818410    1.818410
     1.818410    0.000000    1.818410
     1.818410    1.818410    0.000000
  Cu/0e71e558f37
               1
Direct
  0.000000  0.000000  0.000000
 
   40   40   40
 0.21172218237E+03 0.20773538570E+03 0.19619329496E+03 0.17827898100E+03 0.15574297963E+03
 0.13062920776E+03 0.10498761293E+03 0.80631312845E+02 0.58972721313E+02 0.40943318479E+02
 0.26979344527E+02 0.17049947459E+02 0.10713684876E+02 0.72028841209E+01 0.55408619614E+01
 0.46954743298E+01 0.40587561357E+01 0.35970668941E+01 0.32956137873E+01 0.31288541186E+01
 0.30758789207E+01 0.31288541186E+01 0.32956137873E+01 0.35970668941E+01 0.40587561357E+01
 0.46954743298E+01 0.55408619614E+01 0.72028841209E+01 0.10713684876E+02 0.17049947459E+02
 0.26979344527E+02 0.40943318479E+02 0.58972721313E+02 0.80631312845E+02 0.10498761293E+03
 0.13062920776E+03 0.15574297963E+03 0.17827898100E+03 0.19619329496E+03 0.20773538570E+03
 0.20773538570E+03 0.19997217152E+03 0.18525326379E+03 0.16505665302E+03 0.14129107438E+03
 0.11601127152E+03 0.91150476698E+02 0.68317062663E+02 0.48674536266E+02 0.32896880404E+02
 0.21177066604E+02 0.13269286399E+02 0.85583168565E+01 0.61597565652E+01 0.50535254225E+01
 0.43371223153E+01 0.37926680874E+01 0.34173880599E+01 0.31885971481E+01 0.30816727482E+01
 0.30816727482E+01 0.31885971480E+01 0.34173880598E+01 0.37926680874E+01 0.43371223153E+01
 0.50535254225E+01 0.61597565652E+01 0.85583168565E+01 0.13269286399E+02 0.21177066604E+02
 0.32896880404E+02 0.48674536266E+02 0.68317062663E+02 0.91150476698E+02 0.11601127152E+03
 0.14129107438E+03 0.16505665302E+03 0.18525326379E+03 0.19997217152E+03 0.20773538570E+03
 0.19619329496E+03 0.18525326379E+03 0.16827401800E+03 0.14691646676E+03 0.12312153861E+03
 0.98838380111E+02 0.75793726325E+02 0.55334583766E+02 0.38348774068E+02 0.25247576500E+02
 0.15989869409E+02 0.10135897890E+02 0.69306610970E+01 0.54208600727E+01 0.46141759254E+01
 0.39960438559E+01 0.35497379874E+01 0.32590522215E+01 0.30984588074E+01 0.30474701044E+01
 0.30984588074E+01 0.32590522215E+01 0.35497379873E+01 0.39960438558E+01 0.46141759254E+01
 0.54208600728E+01 0.69306610971E+01 0.10135897890E+02 0.15989869409E+02 0.25247576500E+02
 0.38348774068E+02 0.55334583766E+02 0.75793726325E+02 0.98838380111E+02 0.12312153861E+03
 0.14691646676E+03 0.16827401800E+03 0.18525326379E+03 0.19619329496E+03 0.19997217152E+03
 0.17827898100E+03 0.16505665302E+03 0.14691646676E+03 0.12557861751E+03 0.10289883949E+03
 0.80628107965E+02 0.60227457562E+02 0.42754745778E+02 0.28817398231E+02 0.18573903389E+02
 0.11769723911E+02 0.78035271465E+01 0.58266561952E+01 0.48753742747E+01 0.41971011453E+01
 0.36866367444E+01 0.33369681404E+01 0.31245191611E+01 0.30253921256E+01 0.30253921256E+01
 0.31245191610E+01 0.33369681404E+01 0.36866367444E+01 0.41971011453E+01 0.48753742747E+01
 0.58266561953E+01 0.78035271466E+01 0.11769723911E+02 0.18573903390E+02 0.28817398231E+02
 0.42754745778E+02 0.60227457562E+02 0.80628107965E+02 0.10289883949E+03 0.12557861751E+03
 0.14691646676E+03 0.16505665302E+03 0.17827898100E+03 0.18525326379E+03 0.18525326379E+03
 0.15574297963E+03 0.14129107438E+03 0.12312153861E+03 0.10289883949E+03 0.82300580190E+02
 0.62818964997E+02 0.45620765144E+02 0.31470410566E+02 0.20705794881E+02 0.13253502300E+02
 0.86767899259E+01 0.62570454450E+01 0.51095361392E+01 0.43849420952E+01 0.38207531756E+01
 0.34179273758E+01 0.31572087307E+01 0.30136204835E+01 0.29680859971E+01 0.30136204835E+01
 0.31572087307E+01 0.34179273758E+01 0.38207531755E+01 0.43849420952E+01 0.51095361392E+01
 0.62570454450E+01 0.86767899259E+01 0.13253502301E+02 0.20705794881E+02 0.31470410566E+02
 0.45620765144E+02 0.62818964997E+02 0.82300580190E+02 0.10289883949E+03 0.12312153861E+03
 0.14129107438E+03 0.15574297963E+03 0.16505665302E+03 0.16827401800E+03 0.16505665302E+03
 0.13062920776E+03 0.11601127152E+03 0.98838380111E+02 0.80628107965E+02 0.62818964997E+02
 0.46615062556E+02 0.32884649237E+02 0.22110376204E+02 0.14382081459E+02 0.94251814898E+01
 0.66635888148E+01 0.53178403157E+01 0.45490721573E+01 0.39442062616E+01 0.34967557204E+01
 0.31932497699E+01 0.30097567654E+01 0.29243131124E+01 0.29243131124E+01 0.30097567654E+01
 0.31932497699E+01 0.34967557204E+01 0.39442062616E+01 0.45490721572E+01 0.53178403157E+01
 0.66635888148E+01 0.94251814898E+01 0.14382081459E+02 0.22110376204E+02 0.32884649237E+02
 0.46615062556E+02 0.62818964997E+02 0.80628107965E+02 0.98838380111E+02 0.11601127152E+03
 0.13062920776E+03 0.14129107438E+03 0.14691646676E+03 0.14691646676E+03 0.14129107438E+03
 0.10498761293E+03 0.91150476698E+02 0.75793726325E+02 0.60227457562E+02 0.45620765144E+02
 0.32884649237E+02 0.22600637982E+02 0.14991688153E+02 0.99304594769E+01 0.69833340489E+01
 0.54903600102E+01 0.46804011396E+01 0.40493784752E+01 0.35680409259E+01 0.32290833553E+01
 0.30112104263E+01 0.28915386896E+01 0.28536135295E+01 0.28915386896E+01 0.30112104264E+01
 0.32290833553E+01 0.35680409259E+01 0.40493784752E+01 0.46804011396E+01 0.54903600102E+01
 0.69833340489E+01 0.99304594769E+01 0.14991688153E+02 0.22600637982E+02 0.32884649237E+02
 0.45620765144E+02 0.60227457562E+02 0.75793726325E+02 0.91150476698E+02 0.10498761293E+03
 0.11601127152E+03 0.12312153861E+03 0.12557861751E+03 0.12312153861E+03 0.11601127152E+03
 0.80631312845E+02 0.68317062663E+02 0.55334583766E+02 0.42754745778E+02 0.31470410566E+02
 0.22110376204E+02 0.14991688153E+02 0.10108935787E+02 0.71597339357E+01 0.56064769282E+01
 0.47718827333E+01 0.41296439754E+01 0.36266785985E+01 0.32612305881E+01 0.30155273652E+01
 0.28674216015E+01 0.27984662244E+01 0.27984662244E+01 0.28674216016E+01 0.30155273652E+01
 0.32612305881E+01 0.36266785985E+01 0.41296439754E+01 0.47718827332E+01 0.56064769282E+01
 0.71597339356E+01 0.10108935787E+02 0.14991688153E+02 0.22110376204E+02 0.31470410566E+02
 0.42754745778E+02 0.55334583766E+02 0.68317062663E+02 0.80631312845E+02 0.91150476698E+02
 0.98838380111E+02 0.10289883949E+03 0.10289883949E+03 0.98838380111E+02 0.91150476698E+02
 0.58972721313E+02 0.48674536266E+02 0.38348774068E+02 0.28817398231E+02 0.20705794881E+02
 0.14382081459E+02 0.99304594769E+01 0.71597339357E+01 0.56476180604E+01 0.48187965877E+01
 0.41799230703E+01 0.36683706252E+01 0.32866221447E+01 0.30206204622E+01 0.28501254485E+01
 0.27563624673E+01 0.27265955484E+01 0.27563624673E+01 0.28501254485E+01 0.30206204622E+01
 0.32866221447E+01 0.36683706252E+01 0.41799230702E+01 0.48187965877E+01 0.56476180604E+01
 0.71597339356E+01 0.99304594769E+01 0.14382081459E+02 0.20705794881E+02 0.28817398231E+02
 0.38348774068E+02 0.48674536266E+02 0.58972721313E+02 0.68317062663E+02 0.75793726325E+02
 0.80628107965E+02 0.82300580190E+02 0.80628107965E+02 0.75793726325E+02 0.68317062663E+02
 0.40943318479E+02 0.32896880404E+02 0.25247576500E+02 0.18573903389E+02 0.13253502300E+02
 0.94251814898E+01 0.69833340489E+01 0.56064769282E+01 0.48187965877E+01 0.41970418874E+01
 0.36900241313E+01 0.33028684043E+01 0.30248955104E+01 0.28384186058E+01 0.27256239048E+01
 0.26728612094E+01 0.26728612094E+01 0.27256239048E+01 0.28384186058E+01 0.30248955104E+01
 0.33028684043E+01 0.36900241313E+01 0.41970418873E+01 0.48187965877E+01 0.56064769282E+01
 0.69833340489E+01 0.94251814898E+01 0.13253502301E+02 0.18573903389E+02 0.25247576500E+02
 0.32896880404E+02 0.40943318478E+02 0.48674536266E+02 0.55334583766E+02 0.60227457562E+02
 0.62818964997E+02 0.62818964997E+02 0.60227457562E+02 0.55334583766E+02 0.48674536266E+02
 0.26979344527E+02 0.21177066604E+02 0.15989869409E+02 0.11769723911E+02 0.86767899259E+01
 0.66635888148E+01 0.54903600102E+01 0.47718827333E+01 0.41799230703E+01 0.36900241313E+01
 0.33084563461E+01 0.30272946594E+01 0.28316037339E+01 0.27053699557E+01 0.26353244788E+01
 0.26129476239E+01 0.26353244789E+01 0.27053699558E+01 0.28316037339E+01 0.30272946594E+01
 0.33084563461E+01 0.36900241313E+01 0.41799230702E+01 0.47718827333E+01 0.54903600102E+01
 0.66635888148E+01 0.86767899259E+01 0.11769723911E+02 0.15989869409E+02 0.21177066604E+02
 0.26979344527E+02 0.32896880404E+02 0.38348774068E+02 0.42754745778E+02 0.45620765144E+02
 0.46615062556E+02 0.45620765144E+02 0.42754745778E+02 0.38348774068E+02 0.32896880404E+02
 0.17049947459E+02 0.13269286399E+02 0.10135897890E+02 0.78035271465E+01 0.62570454450E+01
 0.53178403157E+01 0.46804011396E+01 0.41296439754E+01 0.36683706252E+01 0.33028684043E+01
 0.30272946594E+01 0.28293611877E+01 0.26952755001E+01 0.26130232137E+01 0.25740767795E+01
 0.25740767795E+01 0.26130232137E+01 0.26952755001E+01 0.28293611877E+01 0.30272946594E+01
 0.33028684043E+01 0.36683706252E+01 0.41296439754E+01 0.46804011396E+01 0.53178403158E+01
 0.62570454451E+01 0.78035271466E+01 0.10135897890E+02 0.13269286399E+02 0.17049947459E+02
 0.21177066604E+02 0.25247576500E+02 0.28817398231E+02 0.31470410566E+02 0.32884649237E+02
 0.32884649237E+02 0.31470410566E+02 0.28817398231E+02 0.25247576500E+02 0.21177066604E+02
 0.10713684876E+02 0.85583168565E+01 0.69306610970E+01 0.58266561952E+01 0.51095361392E+01
 0.45490721573E+01 0.40493784752E+01 0.36266785985E+01 0.32866221447E+01 0.30248955104E+01
 0.28316037339E+01 0.26952755001E+01 0.26056124825E+01 0.25549064253E+01 0.25385164911E+01
 0.25549064253E+01 0.26056124825E+01 0.26952755001E+01 0.28316037339E+01 0.30248955104E+01
 0.32866221447E+01 0.36266785985E+01 0.40493784752E+01 0.45490721573E+01 0.51095361393E+01
 0.58266561953E+01 0.69306610971E+01 0.85583168565E+01 0.10713684876E+02 0.13269286399E+02
 0.15989869409E+02 0.18573903389E+02 0.20705794881E+02 0.22110376204E+02 0.22600637982E+02
 0.22110376204E+02 0.20705794881E+02 0.18573903390E+02 0.15989869409E+02 0.13269286399E+02
 0.72028841209E+01 0.61597565652E+01 0.54208600727E+01 0.48753742747E+01 0.43849420952E+01
 0.39442062616E+01 0.35680409259E+01 0.32612305881E+01 0.30206204622E+01 0.28384186058E+01
 0.27053699557E+01 0.26130232137E+01 0.25549064253E+01 0.25268467939E+01 0.25268467939E+01
 0.25549064253E+01 0.26130232137E+01 0.27053699558E+01 0.28384186058E+01 0.30206204622E+01
 0.32612305881E+01 0.35680409259E+01 0.39442062616E+01 0.43849420952E+01 0.48753742747E+01
 0.54208600728E+01 0.61597565652E+01 0.72028841209E+01 0.85583168565E+01 0.10135897890E+02
 0.11769723911E+02 0.13253502301E+02 0.14382081459E+02 0.14991688153E+02 0.14991688153E+02
 0.14382081459E+02 0.13253502301E+02 0.11769723911E+02 0.10135897890E+02 0.85583168565E+01
 0.55408619614E+01 0.50535254225E+01 0.46141759254E+01 0.41971011453E+01 0.38207531756E+01
 0.34967557204E+01 0.32290833553E+01 0.30155273652E+01 0.28501254485E+01 0.27256239048E+01
 0.26353244788E+01 0.25740767795E+01 0.25385164911E+01 0.25268467939E+01 0.25385164911E+01
 0.25740767795E+01 0.26353244789E+01 0.27256239048E+01 0.28501254485E+01 0.30155273652E+01
 0.32290833553E+01 0.34967557204E+01 0.38207531755E+01 0.41971011453E+01 0.46141759254E+01
 0.50535254225E+01 0.55408619614E+01 0.61597565652E+01 0.69306610971E+01 0.78035271466E+01
 0.86767899259E+01 0.94251814898E+01 0.99304594769E+01 0.10108935787E+02 0.99304594769E+01
 0.94251814898E+01 0.86767899259E+01 0.78035271466E+01 0.69306610971E+01 0.61597565652E+01
 0.46954743298E+01 0.43371223153E+01 0.39960438559E+01 0.36866367444E+01 0.34179273758E+01
 0.31932497699E+01 0.30112104263E+01 0.28674216015E+01 0.27563624673E+01 0.26728612094E+01
 0.26129476239E+01 0.25740767795E+01 0.25549064253E+01 0.25549064253E+01 0.25740767795E+01
 0.26129476239E+01 0.26728612094E+01 0.27563624673E+01 0.28674216015E+01 0.30112104263E+01
 0.31932497699E+01 0.34179273758E+01 0.36866367444E+01 0.39960438558E+01 0.43371223153E+01
 0.46954743298E+01 0.50535254225E+01 0.54208600728E+01 0.58266561953E+01 0.62570454451E+01
 0.66635888148E+01 0.69833340489E+01 0.71597339356E+01 0.71597339356E+01 0.69833340489E+01
 0.66635888148E+01 0.62570454450E+01 0.58266561953E+01 0.54208600728E+01 0.50535254225E+01
 0.40587561357E+01 0.37926680874E+01 0.35497379874E+01 0.33369681404E+01 0.31572087307E+01
 0.30097567654E+01 0.28915386896E+01 0.27984662244E+01 0.27265955484E+01 0.26728612094E+01
 0.26353244789E+01 0.26130232137E+01 0.26056124825E+01 0.26130232137E+01 0.26353244789E+01
 0.26728612094E+01 0.27265955484E+01 0.27984662244E+01 0.28915386896E+01 0.30097567654E+01
 0.31572087307E+01 0.33369681404E+01 0.35497379873E+01 0.37926680873E+01 0.40587561356E+01
 0.43371223153E+01 0.46141759254E+01 0.48753742747E+01 0.51095361393E+01 0.53178403158E+01
 0.54903600102E+01 0.56064769282E+01 0.56476180604E+01 0.56064769282E+01 0.54903600102E+01
 0.53178403157E+01 0.51095361392E+01 0.48753742747E+01 0.46141759254E+01 0.43371223153E+01
 0.35970668941E+01 0.34173880599E+01 0.32590522215E+01 0.31245191611E+01 0.30136204835E+01
 0.29243131124E+01 0.28536135295E+01 0.27984662244E+01 0.27563624673E+01 0.27256239048E+01
 0.27053699558E+01 0.26952755001E+01 0.26952755001E+01 0.27053699558E+01 0.27256239048E+01
 0.27563624673E+01 0.27984662244E+01 0.28536135295E+01 0.29243131125E+01 0.30136204835E+01
 0.31245191611E+01 0.32590522215E+01 0.34173880598E+01 0.35970668940E+01 0.37926680873E+01
 0.39960438558E+01 0.41971011453E+01 0.43849420952E+01 0.45490721573E+01 0.46804011396E+01
 0.47718827333E+01 0.48187965877E+01 0.48187965877E+01 0.47718827332E+01 0.46804011396E+01
 0.45490721572E+01 0.43849420952E+01 0.41971011453E+01 0.39960438558E+01 0.37926680874E+01
 0.32956137873E+01 0.31885971481E+01 0.30984588074E+01 0.30253921256E+01 0.29680859971E+01
 0.29243131124E+01 0.28915386896E+01 0.28674216016E+01 0.28501254485E+01 0.28384186058E+01
 0.28316037339E+01 0.28293611877E+01 0.28316037339E+01 0.28384186058E+01 0.28501254485E+01
 0.28674216015E+01 0.28915386896E+01 0.29243131125E+01 0.29680859972E+01 0.30253921257E+01
 0.30984588074E+01 0.31885971481E+01 0.32956137873E+01 0.34173880598E+01 0.35497379873E+01
 0.36866367444E+01 0.38207531755E+01 0.39442062616E+01 0.40493784752E+01 0.41296439754E+01
 0.41799230702E+01 0.41970418873E+01 0.41799230702E+01 0.41296439754E+01 0.40493784752E+01
 0.39442062616E+01 0.38207531755E+01 0.36866367444E+01 0.35497379873E+01 0.34173880598E+01
 0.31288541186E+01 0.30816727482E+01 0.30474701044E+01 0.30253921256E+01 0.30136204835E+01
 0.30097567654E+01 0.30112104264E+01 0.30155273652E+01 0.30206204622E+01 0.30248955104E+01
 0.30272946594E+01 0.30272946594E+01 0.30248955104E+01 0.30206204622E+01 0.30155273652E+01
 0.30112104263E+01 0.30097567654E+01 0.30136204835E+01 0.30253921257E+01 0.30474701044E+01
 0.30816727482E+01 0.31288541186E+01 0.31885971481E+01 0.32590522215E+01 0.33369681404E+01
 0.34179273758E+01 0.34967557204E+01 0.35680409259E+01 0.36266785985E+01 0.36683706252E+01
 0.36900241313E+01 0.36900241313E+01 0.36683706252E+01 0.36266785985E+01 0.35680409259E+01
 0.34967557204E+01 0.34179273758E+01 0.33369681404E+01 0.32590522215E+01 0.31885971480E+01
 0.30758789207E+01 0.30816727482E+01 0.30984588074E+01 0.31245191610E+01 0.31572087307E+01
 0.31932497699E+01 0.32290833553E+01 0.32612305881E+01 0.32866221447E+01 0.33028684043E+01
 0.33084563461E+01 0.33028684043E+01 0.32866221447E+01 0.32612305881E+01 0.32290833553E+01
 0.31932497699E+01 0.31572087307E+01 0.31245191611E+01 0.30984588074E+01 0.30816727482E+01
 0.30758789208E+01 0.30816727482E+01 0.30984588074E+01 0.31245191611E+01 0.31572087307E+01
 0.31932497699E+01 0.32290833553E+01 0.32612305881E+01 0.32866221447E+01 0.33028684043E+01
 0.33084563461E+01 0.33028684043E+01 0.32866221447E+01 0.32612305881E+01 0.32290833553E+01
 0.31932497699E+01 0.31572087307E+01 0.31245191610E+01 0.30984588074E+01 0.30816727482E+01
 0.31288541186E+01 0.31885971480E+01 0.32590522215E+01 0.33369681404E+01 0.34179273758E+01
 0.34967557204E+01 0.35680409259E+01 0.36266785985E+01 0.36683706252E+01 0.36900241313E+01
 0.36900241313E+01 0.36683706252E+01 0.36266785985E+01 0.35680409259E+01 0.34967557204E+01
 0.34179273758E+01 0.33369681404E+01 0.32590522215E+01 0.31885971481E+01 0.31288541186E+01
 0.30816727482E+01 0.30474701044E+01 0.30253921257E+01 0.30136204835E+01 0.30097567654E+01
 0.30112104263E+01 0.30155273652E+01 0.30206204622E+01 0.30248955104E+01 0.30272946594E+01
 0.30272946594E+01 0.30248955104E+01 0.30206204622E+01 0.30155273652E+01 0.30112104264E+01
 0.30097567654E+01 0.30136204835E+01 0.30253921256E+01 0.30474701044E+01 0.30816727482E+01
 0.32956137873E+01 0.34173880598E+01 0.35497379873E+01 0.36866367444E+01 0.38207531755E+01
 0.39442062616E+01 0.40493784752E+01 0.41296439754E+01 0.41799230702E+01 0.41970418873E+01
 0.41799230702E+01 0.41296439754E+01 0.40493784752E+01 0.39442062616E+01 0.38207531755E+01
 0.36866367444E+01 0.35497379873E+01 0.34173880598E+01 0.32956137873E+01 0.31885971481E+01
 0.30984588074E+01 0.30253921257E+01 0.29680859972E+01 0.29243131125E+01 0.28915386896E+01
 0.28674216015E+01 0.28501254485E+01 0.28384186058E+01 0.28316037339E+01 0.28293611877E+01
 0.28316037339E+01 0.28384186058E+01 0.28501254485E+01 0.28674216016E+01 0.28915386896E+01
 0.29243131124E+01 0.29680859971E+01 0.30253921256E+01 0.30984588074E+01 0.31885971481E+01
 0.35970668941E+01 0.37926680874E+01 0.39960438558E+01 0.41971011453E+01 0.43849420952E+01
 0.45490721572E+01 0.46804011396E+01 0.47718827332E+01 0.48187965877E+01 0.48187965877E+01
 0.47718827333E+01 0.46804011396E+01 0.45490721573E+01 0.43849420952E+01 0.41971011453E+01
 0.39960438558E+01 0.37926680873E+01 0.35970668940E+01 0.34173880598E+01 0.32590522215E+01
 0.31245191611E+01 0.30136204835E+01 0.29243131125E+01 0.28536135295E+01 0.27984662244E+01
 0.27563624673E+01 0.27256239048E+01 0.27053699558E+01 0.26952755001E+01 0.26952755001E+01
 0.27053699558E+01 0.27256239048E+01 0.27563624673E+01 0.27984662244E+01 0.28536135295E+01
 0.29243131124E+01 0.30136204835E+01 0.31245191611E+01 0.32590522215E+01 0.34173880599E+01
 0.40587561357E+01 0.43371223153E+01 0.46141759254E+01 0.48753742747E+01 0.51095361392E+01
 0.53178403157E+01 0.54903600102E+01 0.56064769282E+01 0.56476180604E+01 0.56064769282E+01
 0.54903600102E+01 0.53178403158E+01 0.51095361393E+01 0.48753742747E+01 0.46141759254E+01
 0.43371223153E+01 0.40587561356E+01 0.37926680873E+01 0.35497379873E+01 0.33369681404E+01
 0.31572087307E+01 0.30097567654E+01 0.28915386896E+01 0.27984662244E+01 0.27265955484E+01
 0.26728612094E+01 0.26353244789E+01 0.26130232137E+01 0.26056124825E+01 0.26130232137E+01
 0.26353244789E+01 0.26728612094E+01 0.27265955484E+01 0.27984662244E+01 0.28915386896E+01
 0.30097567654E+01 0.31572087307E+01 0.33369681404E+01 0.35497379874E+01 0.37926680874E+01
 0.46954743298E+01 0.50535254225E+01 0.54208600728E+01 0.58266561953E+01 0.62570454450E+01
 0.66635888148E+01 0.69833340489E+01 0.71597339356E+01 0.71597339356E+01 0.69833340489E+01
 0.66635888148E+01 0.62570454451E+01 0.58266561953E+01 0.54208600728E+01 0.50535254225E+01
 0.46954743298E+01 0.43371223153E+01 0.39960438558E+01 0.36866367444E+01 0.34179273758E+01
 0.31932497699E+01 0.30112104263E+01 0.28674216015E+01 0.27563624673E+01 0.26728612094E+01
 0.26129476239E+01 0.25740767795E+01 0.25549064253E+01 0.25549064253E+01 0.25740767795E+01
 0.26129476239E+01 0.26728612094E+01 0.27563624673E+01 0.28674216015E+01 0.30112104263E+01
 0.31932497699E+01 0.34179273758E+01 0.36866367444E+01 0.39960438559E+01 0.43371223153E+01
 0.55408619614E+01 0.61597565652E+01 0.69306610971E+01 0.78035271466E+01 0.86767899259E+01
 0.94251814898E+01 0.99304594769E+01 0.10108935787E+02 0.99304594769E+01 0.94251814898E+01
 0.86767899259E+01 0.78035271466E+01 0.69306610971E+01 0.61597565652E+01 0.55408619614E+01
 0.50535254225E+01 0.46141759254E+01 0.41971011453E+01 0.38207531755E+01 0.34967557204E+01
 0.32290833553E+01 0.30155273652E+01 0.28501254485E+01 0.27256239048E+01 0.26353244789E+01
 0.25740767795E+01 0.25385164911E+01 0.25268467939E+01 0.25385164911E+01 0.25740767795E+01
 0.26353244788E+01 0.27256239048E+01 0.28501254485E+01 0.30155273652E+01 0.32290833553E+01
 0.34967557204E+01 0.38207531756E+01 0.41971011453E+01 0.46141759254E+01 0.50535254225E+01
 0.72028841209E+01 0.85583168565E+01 0.10135897890E+02 0.11769723911E+02 0.13253502301E+02
 0.14382081459E+02 0.14991688153E+02 0.14991688153E+02 0.14382081459E+02 0.13253502301E+02
 0.11769723911E+02 0.10135897890E+02 0.85583168565E+01 0.72028841209E+01 0.61597565652E+01
 0.54208600728E+01 0.48753742747E+01 0.43849420952E+01 0.39442062616E+01 0.35680409259E+01
 0.32612305881E+01 0.30206204622E+01 0.28384186058E+01 0.27053699558E+01 0.26130232137E+01
 0.25549064253E+01 0.25268467939E+01 0.25268467939E+01 0.25549064253E+01 0.26130232137E+01
 0.27053699557E+01 0.28384186058E+01 0.30206204622E+01 0.32612305881E+01 0.35680409259E+01
 0.39442062616E+01 0.43849420952E+01 0.48753742747E+01 0.54208600727E+01 0.61597565652E+01
 0.10713684876E+02 0.13269286399E+02 0.15989869409E+02 0.18573903390E+02 0.20705794881E+02
 0.22110376204E+02 0.22600637982E+02 0.22110376204E+02 0.20705794881E+02 0.18573903389E+02
 0.15989869409E+02 0.13269286399E+02 0.10713684876E+02 0.85583168565E+01 0.69306610971E+01
 0.58266561953E+01 0.51095361393E+01 0.45490721573E+01 0.40493784752E+01 0.36266785985E+01
 0.32866221447E+01 0.30248955104E+01 0.28316037339E+01 0.26952755001E+01 0.26056124825E+01
 0.25549064253E+01 0.25385164911E+01 0.25549064253E+01 0.26056124825E+01 0.26952755001E+01
 0.28316037339E+01 0.30248955104E+01 0.32866221447E+01 0.36266785985E+01 0.40493784752E+01
 0.45490721573E+01 0.51095361392E+01 0.58266561952E+01 0.69306610970E+01 0.85583168565E+01
 0.17049947459E+02 0.21177066604E+02 0.25247576500E+02 0.28817398231E+02 0.31470410566E+02
 0.32884649237E+02 0.32884649237E+02 0.31470410566E+02 0.28817398231E+02 0.25247576500E+02
 0.21177066604E+02 0.17049947459E+02 0.13269286399E+02 0.10135897890E+02 0.78035271466E+01
 0.62570454451E+01 0.53178403158E+01 0.46804011396E+01 0.41296439754E+01 0.36683706252E+01
 0.33028684043E+01 0.30272946594E+01 0.28293611877E+01 0.26952755001E+01 0.26130232137E+01
 0.25740767795E+01 0.25740767795E+01 0.26130232137E+01 0.26952755001E+01 0.28293611877E+01
 0.30272946594E+01 0.33028684043E+01 0.36683706252E+01 0.41296439754E+01 0.46804011396E+01
 0.53178403157E+01 0.62570454450E+01 0.78035271465E+01 0.10135897890E+02 0.13269286399E+02
 0.26979344527E+02 0.32896880404E+02 0.38348774068E+02 0.42754745778E+02 0.45620765144E+02
 0.46615062556E+02 0.45620765144E+02 0.42754745778E+02 0.38348774068E+02 0.32896880404E+02
 0.26979344527E+02 0.21177066604E+02 0.15989869409E+02 0.11769723911E+02 0.86767899259E+01
 0.66635888148E+01 0.54903600102E+01 0.47718827333E+01 0.41799230702E+01 0.36900241313E+01
 0.33084563461E+01 0.30272946594E+01 0.28316037339E+01 0.27053699558E+01 0.26353244789E+01
 0.26129476239E+01 0.26353244788E+01 0.27053699557E+01 0.28316037339E+01 0.30272946594E+01
 0.33084563461E+01 0.36900241313E+01 0.41799230703E+01 0.47718827333E+01 0.54903600102E+01
 0.66635888148E+01 0.86767899259E+01 0.11769723911E+02 0.15989869409E+02 0.21177066604E+02
 0.40943318479E+02 0.48674536266E+02 0.55334583766E+02 0.60227457562E+02 0.62818964997E+02
 0.62818964997E+02 0.60227457562E+02 0.55334583766E+02 0.48674536266E+02 0.40943318478E+02
 0.32896880404E+02 0.25247576500E+02 0.18573903389E+02 0.13253502301E+02 0.94251814898E+01
 0.69833340489E+01 0.56064769282E+01 0.48187965877E+01 0.41970418873E+01 0.36900241313E+01
 0.33028684043E+01 0.30248955104E+01 0.28384186058E+01 0.27256239048E+01 0.26728612094E+01
 0.26728612094E+01 0.27256239048E+01 0.28384186058E+01 0.30248955104E+01 0.33028684043E+01
 0.36900241313E+01 0.41970418874E+01 0.48187965877E+01 0.56064769282E+01 0.69833340489E+01
 0.94251814898E+01 0.13253502300E+02 0.18573903389E+02 0.25247576500E+02 0.32896880404E+02
 0.58972721313E+02 0.68317062663E+02 0.75793726325E+02 0.80628107965E+02 0.82300580190E+02
 0.80628107965E+02 0.75793726325E+02 0.68317062663E+02 0.58972721313E+02 0.48674536266E+02
 0.38348774068E+02 0.28817398231E+02 0.20705794881E+02 0.14382081459E+02 0.99304594769E+01
 0.71597339356E+01 0.56476180604E+01 0.48187965877E+01 0.41799230702E+01 0.36683706252E+01
 0.32866221447E+01 0.30206204622E+01 0.28501254485E+01 0.27563624673E+01 0.27265955484E+01
 0.27563624673E+01 0.28501254485E+01 0.30206204622E+01 0.32866221447E+01 0.36683706252E+01
 0.41799230703E+01 0.48187965877E+01 0.56476180604E+01 0.71597339357E+01 0.99304594769E+01
 0.14382081459E+02 0.20705794881E+02 0.28817398231E+02 0.38348774068E+02 0.48674536266E+02
 0.80631312845E+02 0.91150476698E+02 0.98838380111E+02 0.10289883949E+03 0.10289883949E+03
 0.98838380111E+02 0.91150476698E+02 0.80631312845E+02 0.68317062663E+02 0.55334583766E+02
 0.42754745778E+02 0.31470410566E+02 0.22110376204E+02 0.14991688153E+02 0.10108935787E+02
 0.71597339356E+01 0.56064769282E+01 0.47718827332E+01 0.41296439754E+01 0.36266785985E+01
 0.32612305881E+01 0.30155273652E+01 0.28674216016E+01 0.27984662244E+01 0.27984662244E+01
 0.28674216015E+01 0.30155273652E+01 0.32612305881E+01 0.36266785985E+01 0.41296439754E+01
 0.47718827333E+01 0.56064769282E+01 0.71597339357E+01 0.10108935787E+02 0.14991688153E+02
 0.22110376204E+02 0.31470410566E+02 0.42754745778E+02 0.55334583766E+02 0.68317062663E+02
 0.10498761293E+03 0.11601127152E+03 0.12312153861E+03 0.12557861751E+03 0.12312153861E+03
 0.11601127152E+03 0.10498761293E+03 0.91150476698E+02 0.75793726325E+02 0.60227457562E+02
 0.45620765144E+02 0.32884649237E+02 0.22600637982E+02 0.14991688153E+02 0.99304594769E+01
 0.69833340489E+01 0.54903600102E+01 0.46804011396E+01 0.40493784752E+01 0.35680409259E+01
 0.32290833553E+01 0.30112104264E+01 0.28915386896E+01 0.28536135295E+01 0.28915386896E+01
 0.30112104263E+01 0.32290833553E+01 0.35680409259E+01 0.40493784752E+01 0.46804011396E+01
 0.54903600102E+01 0.69833340489E+01 0.99304594769E+01 0.14991688153E+02 0.22600637982E+02
 0.32884649237E+02 0.45620765144E+02 0.60227457562E+02 0.75793726325E+02 0.91150476698E+02
 0.13062920776E+03 0.14129107438E+03 0.14691646676E+03 0.14691646676E+03 0.14129107438E+03
 0.13062920776E+03 0.11601127152E+03 0.98838380111E+02 0.80628107965E+02 0.62818964997E+02
 0.46615062556E+02 0.32884649237E+02 0.22110376204E+02 0.14382081459E+02 0.94251814898E+01
 0.66635888148E+01 0.53178403157E+01 0.45490721572E+01 0.39442062616E+01 0.34967557204E+01
 0.31932497699E+01 0.30097567654E+01 0.29243131124E+01 0.29243131124E+01 0.30097567654E+01
 0.31932497699E+01 0.34967557204E+01 0.39442062616E+01 0.45490721573E+01 0.53178403157E+01
 0.66635888148E+01 0.94251814898E+01 0.14382081459E+02 0.22110376204E+02 0.32884649237E+02
 0.46615062556E+02 0.62818964997E+02 0.80628107965E+02 0.98838380111E+02 0.11601127152E+03
 0.15574297963E+03 0.16505665302E+03 0.16827401800E+03 0.16505665302E+03 0.15574297963E+03
 0.14129107438E+03 0.12312153861E+03 0.10289883949E+03 0.82300580190E+02 0.62818964997E+02
 0.45620765144E+02 0.31470410566E+02 0.20705794881E+02 0.13253502301E+02 0.86767899259E+01
 0.62570454450E+01 0.51095361392E+01 0.43849420952E+01 0.38207531755E+01 0.34179273758E+01
 0.31572087307E+01 0.30136204835E+01 0.29680859971E+01 0.30136204835E+01 0.31572087307E+01
 0.34179273758E+01 0.38207531756E+01 0.43849420952E+01 0.51095361392E+01 0.62570454450E+01
 0.86767899259E+01 0.13253502300E+02 0.20705794881E+02 0.31470410566E+02 0.45620765144E+02
 0.62818964997E+02 0.82300580190E+02 0.10289883949E+03 0.12312153861E+03 0.14129107438E+03
 0.17827898100E+03 0.18525326379E+03 0.18525326379E+03 0.17827898100E+03 0.16505665302E+03
 0.14691646676E+03 0.12557861751E+03 0.10289883949E+03 0.80628107965E+02 0.60227457562E+02
 0.42754745778E+02 0.28817398231E+02 0.18573903390E+02 0.11769723911E+02 0.78035271466E+01
 0.58266561953E+01 0.48753742747E+01 0.41971011453E+01 0.36866367444E+01 0.33369681404E+01
 0.31245191610E+01 0.30253921256E+01 0.30253921256E+01 0.31245191611E+01 0.33369681404E+01
 0.36866367444E+01 0.41971011453E+01 0.48753742747E+01 0.58266561952E+01 0.78035271465E+01
 0.11769723911E+02 0.18573903389E+02 0.28817398231E+02 0.42754745778E+02 0.60227457562E+02
 0.80628107965E+02 0.10289883949E+03 0.12557861751E+03 0.14691646676E+03 0.16505665302E+03
 0.19619329496E+03 0.19997217152E+03 0.19619329496E+03 0.18525326379E+03 0.16827401800E+03
 0.14691646676E+03 0.12312153861E+03 0.98838380111E+02 0.75793726325E+02 0.55334583766E+02
 0.38348774068E+02 0.25247576500E+02 0.15989869409E+02 0.10135897890E+02 0.69306610971E+01
 0.54208600728E+01 0.46141759254E+01 0.39960438558E+01 0.35497379873E+01 0.32590522215E+01
 0.30984588074E+01 0.30474701044E+01 0.30984588074E+01 0.32590522215E+01 0.35497379874E+01
 0.39960438559E+01 0.46141759254E+01 0.54208600727E+01 0.69306610970E+01 0.10135897890E+02
 0.15989869409E+02 0.25247576500E+02 0.38348774068E+02 0.55334583766E+02 0.75793726325E+02
 0.98838380111E+02 0.12312153861E+03 0.14691646676E+03 0.16827401800E+03 0.18525326379E+03
 0.20773538570E+03 0.20773538570E+03 0.19997217152E+03 0.18525326379E+03 0.16505665302E+03
 0.14129107438E+03 0.11601127152E+03 0.91150476698E+02 0.68317062663E+02 0.48674536266E+02
 0.32896880404E+02 0.21177066604E+02 0.13269286399E+02 0.85583168565E+01 0.61597565652E+01
 0.50535254225E+01 0.43371223153E+01 0.37926680874E+01 0.34173880598E+01 0.31885971480E+01
 0.30816727482E+01 0.30816727482E+01 0.31885971481E+01 0.34173880599E+01 0.37926680874E+01
 0.43371223153E+01 0.50535254225E+01 0.61597565652E+01 0.85583168565E+01 0.13269286399E+02
 0.21177066604E+02 0.32896880404E+02 0.48674536266E+02 0.68317062663E+02 0.91150476698E+02
 0.11601127152E+03 0.14129107438E+03 0.16505665302E+03 0.18525326379E+03 0.19997217152E+03
 0.20773538570E+03 0.19997217152E+03 0.18525326379E+03 0.16505665302E+03 0.14129107438E+03
 0.11601127152E+03 0.91150476698E+02 0.68317062663E+02 0.48674536266E+02 0.32896880404E+02
 0.21177066604E+02 0.13269286399E+02 0.85583168565E+01 0.61597565652E+01 0.50535254225E+01
 0.43371223153E+01 0.37926680874E+01 0.34173880599E+01 0.31885971481E+01 0.30816727482E+01
 0.30816727482E+01 0.31885971480E+01 0.34173880598E+01 0.37926680874E+01 0.43371223153E+01
 0.50535254225E+01 0.61597565652E+01 0.85583168565E+01 0.13269286399E+02 0.21177066604E+02