 vasp.6.4.2 20Jul23 (build Oct 16 2024 22:45:58) complex                        
  
 executed on             LinuxIFC date 2025.02.15  11:12:04
 running    4 mpi-ranks, on    1 nodes
 distrk:  each k-point on    4 cores,    1 groups
 distr:  one band on NCORE=   1 cores,    4 groups


--------------------------------------------------------------------------------------------------------


 INCAR:
   SYSTEM = Cu FCC
   PREC = Accurate
   EDIFF = 1E-10
   EDIFFG = -1E-5
   ISMEAR = 0
   SIGMA = 0.03
   GGA = PE
   ENCUT = 520
   NSW = 0
   IBRION = -1
   ISIF = 0
   LWAVE = .FALSE.

 POTCAR:    PAW_PBE Cu 22Jun2005                  
 POTCAR:    PAW_PBE Cu 22Jun2005                  
   SHA256 =  0e71e558f37a4e8407882b4609ceaae59938afaad9ced71dfe8490308a0ab630 Cu/POTCAR             
   COPYR  = (c) Copyright 22Jun2005 Georg Kresse                                                    
   COPYR  = This file is part of the software VASP. Any use, copying, and all other rights are regul
   COPYR  = If you do not have a valid VASP license, you may not use, copy or distribute this file. 
   VRHFIN =Cu: d10 p1                                                                               
   LEXCH  = PE                                                                                      
   EATOM  =  1390.9808 eV,  102.2342 Ry                                                             
                                                                                                    
   TITEL  = PAW_PBE Cu 22Jun2005                                                                    
   LULTRA =        F    use ultrasoft PP ?                                                          
   IUNSCR =        1    unscreen: 0-lin 1-nonlin 2-no                                               
   RPACOR =    2.000    partial core radius                                                         
   POMASS =   63.546; ZVAL   =   11.000    mass and valenz                                          
   RCORE  =    2.300    outmost cutoff radius                                                       
   RWIGS  =    2.200; RWIGS  =    1.164    wigner-seitz radius (au A)                               
   ENMAX  =  295.446; ENMIN  =  221.585 eV                                                          
   ICORE  =        3    local potential                                                             
   LCOR   =        T    correct aug charges                                                         
   LPAW   =        T    paw PP                                                                      
   EAUG   =  586.980                                                                                
   DEXC   =    0.000                                                                                
   RMAX   =    2.344    core radius for proj-oper                                                   
   RAUG   =    1.300    factor for augmentation sphere                                              
   RDEP   =    2.302    radius for radial grids                                                     
   RDEPT  =    1.771    core radius for aug-charge                                                  
                                                                                                    
   Atomic configuration                                                                             
    9 entries                                                                                       
     n  l   j            E        occ.                                                              
     1  0  0.50     -8850.2468   2.0000                                                             
     2  0  0.50     -1062.3498   2.0000                                                             
     2  1  1.50      -916.8226   6.0000                                                             
     3  0  0.50      -114.6929   2.0000                                                             
     3  1  1.50       -72.1325   6.0000                                                             
     3  2  2.50        -5.0394  10.0000                                                             
     4  0  0.50        -4.6097   1.0000                                                             
     4  1  0.50        -4.0817   0.0000                                                             
     4  3  2.50        -1.3606   0.0000                                                             
   Description                                                                                      
     l       E           TYP  RCUT    TYP  RCUT                                                     
     2     -5.0393973     23  2.200                                                                 
     2     10.8846608     23  2.200                                                                 
     0     -4.6097109     23  2.200                                                                 
     0      8.2520465     23  2.200                                                                 
     1     -2.7211652     23  2.200                                                                 
     1     21.7055443     23  2.200                                                                 
     3      2.7211652     23  2.300                                                                 
  local pseudopotential read in
  partial core-charges read in
  partial kinetic energy density read in
  atomic valenz-charges read in
  non local Contribution for L=           2  read in
    real space projection operators read in
  non local Contribution for L=           2  read in
    real space projection operators read in
  non local Contribution for L=           0  read in
    real space projection operators read in
  non local Contribution for L=           0  read in
    real space projection operators read in
  non local Contribution for L=           1  read in
    real space projection operators read in
  non local Contribution for L=           1  read in
    real space projection operators read in
    PAW grid and wavefunctions read in
 
   number of l-projection  operators is LMAX  =           6
   number of lm-projection operators is LMMAX =          18
 
  PAW_PBE Cu 22Jun2005                  :
 energy of atom  1       EATOM=-1390.9808
 kinetic energy error for atom=    0.0037 (will be added to EATOM!!)
 
 
 POSCAR: Copper  [FCC,FCC,cF4] (STD_PRIM doi:10.1
  positions in direct lattice
  velocities in cartesian coordinates
 exchange correlation table for  LEXCH =        8
   RHO(1)=    0.500       N(1)  =     2000
   RHO(2)=  100.500       N(2)  =     4000

 VTST: version 4.1, (05/19/21)

 CHAIN: initializing optimizer
 
 OPT: Using VASP Dynamics algorithm
 CHAIN: Read ICHAIN            0
 
 POSCAR: Copper  [FCC,FCC,cF4] (STD_PRIM doi:10.1
  positions in direct lattice
  velocities in cartesian coordinates
 


--------------------------------------------------------------------------------------------------------


 ion  position               nearest neighbor table
   1  0.000  0.000  0.000-
 
  LATTYP: Found a face centered cubic cell.
 ALAT       =     3.6368206731
  
  Lattice vectors:
  
 A1 = (   0.0000000000,   1.8184103366,   1.8184103366)
 A2 = (   1.8184103366,   0.0000000000,   1.8184103366)
 A3 = (   1.8184103366,   1.8184103366,   0.0000000000)


Analysis of symmetry for initial positions (statically):
=====================================================================
 Subroutine PRICEL returns:
 Original cell was already a primitive cell.
 

 Routine SETGRP: Setting up the symmetry group for a 
 face centered cubic supercell.


 Subroutine GETGRP returns: Found 48 space group operations
 (whereof 48 operations were pure point group operations)
 out of a pool of 48 trial point group operations.


The static configuration has the point symmetry O_h .


Analysis of symmetry for dynamics (positions and initial velocities):
=====================================================================
 Subroutine PRICEL returns:
 Original cell was already a primitive cell.
 

 Routine SETGRP: Setting up the symmetry group for a 
 face centered cubic supercell.


 Subroutine GETGRP returns: Found 48 space group operations
 (whereof 48 operations were pure point group operations)
 out of a pool of 48 trial point group operations.


The dynamic configuration has the point symmetry O_h .


 Subroutine INISYM returns: Found 48 space group operations
 (whereof 48 operations are pure point group operations),
 and found     1 'primitive' translations


----------------------------------------------------------------------------------------

                                     Primitive cell                                     

  volume of cell :      12.0256

  direct lattice vectors                    reciprocal lattice vectors
     0.000000000  1.818410337  1.818410337    -0.274965441  0.274965441  0.274965441
     1.818410337  0.000000000  1.818410337     0.274965441 -0.274965441  0.274965441
     1.818410337  1.818410337  0.000000000     0.274965441  0.274965441 -0.274965441

  length of vectors
     2.571620560  2.571620560  2.571620560     0.476254114  0.476254114  0.476254114

  position of ions in fractional coordinates (direct lattice)
     0.000000000  0.000000000  0.000000000

  ion indices of the primitive-cell ions
   primitive index   ion index
                 1           1

----------------------------------------------------------------------------------------

 
 
 KPOINTS: KPOINTS                                 

Automatic generation of k-mesh.
 Grid dimensions read from file:
 generate k-points for:   10   10   10

 Generating k-lattice:

  Cartesian coordinates                     Fractional coordinates (reciprocal lattice)
    -0.027496544  0.027496544  0.027496544     0.100000000  0.000000000  0.000000000
     0.027496544 -0.027496544  0.027496544     0.000000000  0.100000000  0.000000000
     0.027496544  0.027496544 -0.027496544     0.000000000  0.000000000  0.100000000

  Length of vectors
     0.047625411  0.047625411  0.047625411

  Shift w.r.t. Gamma in fractional coordinates (k-lattice)
     0.000000000  0.000000000  0.000000000

 
 Subroutine IBZKPT returns following result:
 ===========================================
 
 Found     47 irreducible k-points:
 
 Following reciprocal coordinates:
            Coordinates               Weight
  0.000000  0.000000  0.000000      1.000000
  0.100000  0.000000  0.000000      8.000000
  0.200000  0.000000  0.000000      8.000000
  0.300000  0.000000  0.000000      8.000000
  0.400000  0.000000  0.000000      8.000000
  0.500000  0.000000  0.000000      4.000000
  0.100000  0.100000  0.000000      6.000000
  0.200000  0.100000  0.000000     24.000000
  0.300000  0.100000  0.000000     24.000000
  0.400000  0.100000  0.000000     24.000000
  0.500000  0.100000  0.000000     24.000000
 -0.400000  0.100000  0.000000     24.000000
 -0.300000  0.100000  0.000000     24.000000
 -0.200000  0.100000  0.000000     24.000000
 -0.100000  0.100000  0.000000     12.000000
  0.200000  0.200000  0.000000      6.000000
  0.300000  0.200000  0.000000     24.000000
  0.400000  0.200000  0.000000     24.000000
  0.500000  0.200000  0.000000     24.000000
 -0.400000  0.200000  0.000000     24.000000
 -0.300000  0.200000  0.000000     24.000000
 -0.200000  0.200000  0.000000     12.000000
  0.300000  0.300000  0.000000      6.000000
  0.400000  0.300000  0.000000     24.000000
  0.500000  0.300000  0.000000     24.000000
 -0.400000  0.300000  0.000000     24.000000
 -0.300000  0.300000  0.000000     12.000000
  0.400000  0.400000  0.000000      6.000000
  0.500000  0.400000  0.000000     24.000000
 -0.400000  0.400000  0.000000     12.000000
  0.500000  0.500000  0.000000      3.000000
  0.300000  0.200000  0.100000     24.000000
  0.400000  0.200000  0.100000     48.000000
  0.500000  0.200000  0.100000     48.000000
 -0.400000  0.200000  0.100000     24.000000
  0.400000  0.300000  0.100000     24.000000
  0.500000  0.300000  0.100000     48.000000
 -0.400000  0.300000  0.100000     48.000000
 -0.300000  0.300000  0.100000     48.000000
 -0.200000  0.300000  0.100000     24.000000
  0.500000  0.400000  0.100000     24.000000
 -0.400000  0.400000  0.100000     48.000000
 -0.300000  0.400000  0.100000     24.000000
 -0.400000  0.500000  0.100000     12.000000
 -0.400000  0.400000  0.200000     24.000000
 -0.300000  0.400000  0.200000     24.000000
 -0.300000  0.500000  0.200000     12.000000
 
 Following cartesian coordinates:
            Coordinates               Weight
  0.000000  0.000000  0.000000      1.000000
 -0.027497  0.027497  0.027497      8.000000
 -0.054993  0.054993  0.054993      8.000000
 -0.082490  0.082490  0.082490      8.000000
 -0.109986  0.109986  0.109986      8.000000
 -0.137483  0.137483  0.137483      4.000000
  0.000000  0.000000  0.054993      6.000000
 -0.027497  0.027497  0.082490     24.000000
 -0.054993  0.054993  0.109986     24.000000
 -0.082490  0.082490  0.137483     24.000000
 -0.109986  0.109986  0.164979     24.000000
  0.137483 -0.137483 -0.082490     24.000000
  0.109986 -0.109986 -0.054993     24.000000
  0.082490 -0.082490 -0.027497     24.000000
  0.054993 -0.054993  0.000000     12.000000
  0.000000  0.000000  0.109986      6.000000
 -0.027497  0.027497  0.137483     24.000000
 -0.054993  0.054993  0.164979     24.000000
 -0.082490  0.082490  0.192476     24.000000
  0.164979 -0.164979 -0.054993     24.000000
  0.137483 -0.137483 -0.027497     24.000000
  0.109986 -0.109986  0.000000     12.000000
  0.000000  0.000000  0.164979      6.000000
 -0.027497  0.027497  0.192476     24.000000
 -0.054993  0.054993  0.219972     24.000000
  0.192476 -0.192476 -0.027497     24.000000
  0.164979 -0.164979  0.000000     12.000000
  0.000000  0.000000  0.219972      6.000000
 -0.027497  0.027497  0.247469     24.000000
  0.219972 -0.219972  0.000000     12.000000
  0.000000  0.000000  0.274965      3.000000
  0.000000  0.054993  0.109986     24.000000
 -0.027497  0.082490  0.137483     48.000000
 -0.054993  0.109986  0.164979     48.000000
  0.192476 -0.137483 -0.082490     24.000000
  0.000000  0.054993  0.164979     24.000000
 -0.027497  0.082490  0.192476     48.000000
  0.219972 -0.164979 -0.054993     48.000000
  0.192476 -0.137483 -0.027497     48.000000
  0.164979 -0.109986 -0.000000     24.000000
  0.000000  0.054993  0.219972     24.000000
  0.247469 -0.192476 -0.027497     48.000000
  0.219972 -0.164979 -0.000000     24.000000
  0.274965 -0.219972  0.000000     12.000000
  0.274965 -0.164979 -0.054993     24.000000
  0.247469 -0.137483 -0.027497     24.000000
  0.274965 -0.164979  0.000000     12.000000
 


--------------------------------------------------------------------------------------------------------




 Dimension of arrays:
   k-points           NKPTS =     47   k-points in BZ     NKDIM =     47   number of bands    NBANDS=     12
   number of dos      NEDOS =    301   number of ions     NIONS =      1
   non local maximal  LDIM  =      6   non local SUM 2l+1 LMDIM =     18
   total plane-waves  NPLWV =   8000
   max r-space proj   IRMAX =      1   max aug-charges    IRDMAX=  19467
   dimension x,y,z NGX =    20 NGY =   20 NGZ =   20
   dimension x,y,z NGXF=    40 NGYF=   40 NGZF=   40
   support grid    NGXF=    40 NGYF=   40 NGZF=   40
   ions per type =               1
   NGX,Y,Z   is equivalent  to a cutoff of  12.93, 12.93, 12.93 a.u.
   NGXF,Y,Z  is equivalent  to a cutoff of  25.86, 25.86, 25.86 a.u.

 SYSTEM =  Cu FCC                                  
 POSCAR =  Copper  [FCC,FCC,cF4] (STD_PRIM doi:10.1

 Startparameter for this run:
   NWRITE =      2    write-flag & timer
   PREC   = accura    normal or accurate (medium, high low for compatibility)
   ISTART =      0    job   : 0-new  1-cont  2-samecut
   ICHARG =      2    charge: 1-file 2-atom 10-const
   ISPIN  =      1    spin polarized calculation?
   LNONCOLLINEAR =      F non collinear calculations
   LSORBIT =      F    spin-orbit coupling
   INIWAV =      1    electr: 0-lowe 1-rand  2-diag
   LASPH  =      F    aspherical Exc in radial PAW
 Electronic Relaxation 1
   ENCUT  =  520.0 eV  38.22 Ry    6.18 a.u.   4.78  4.78  4.78*2*pi/ulx,y,z
   ENINI  =  520.0     initial cutoff
   ENAUG  =  587.0 eV  augmentation charge cutoff
   NELM   =     60;   NELMIN=  2; NELMDL=  0     # of ELM steps 
   EDIFF  = 0.1E-09   stopping-criterion for ELM
   LREAL  =      F    real-space projection
   NLSPLINE    = F    spline interpolate recip. space projectors
   LCOMPAT=      F    compatible to vasp.4.4
   GGA_COMPAT  = T    GGA compatible to vasp.4.4-vasp.4.6
   LMAXPAW     = -100 max onsite density
   LMAXMIX     =    2 max onsite mixed and CHGCAR
   VOSKOWN=      0    Vosko Wilk Nusair interpolation
   ROPT   =    0.00000
 Ionic relaxation
   EDIFFG = -.1E-04   stopping-criterion for IOM
   NSW    =      0    number of steps for IOM
   NBLOCK =      1;   KBLOCK =      1    inner block; outer block 
   IBRION =     -1    ionic relax: 0-MD 1-quasi-New 2-CG
   NFREE  =      0    steps in history (QN), initial steepest desc. (CG)
   ISIF   =      0    stress and relaxation
   IWAVPR =     10    prediction:  0-non 1-charg 2-wave 3-comb
   ISYM   =      2    0-nonsym 1-usesym 2-fastsym
   LCORR  =      T    Harris-Foulkes like correction to forces

   POTIM  = 0.5000    time-step for ionic-motion
   TEIN   =    0.0    initial temperature
   TEBEG  =    0.0;   TEEND  =   0.0 temperature during run
   SMASS  =  -3.00    Nose mass-parameter (am)
   estimated Nose-frequenzy (Omega)   =  0.10E-29 period in steps = 0.13E+47 mass=  -0.151E-27a.u.
   SCALEE = 1.0000    scale energy and forces
   NPACO  =    256;   APACO  = 10.0  distance and # of slots for P.C.
   PSTRESS=    0.0 pullay stress

  Mass of Ions in am
   POMASS =  63.55
  Ionic Valenz
   ZVAL   =  11.00
  Atomic Wigner-Seitz radii
   RWIGS  =  -1.00
  virtual crystal weights 
   VCA    =   1.00
   NELECT =      11.0000    total number of electrons
   NUPDOWN=      -1.0000    fix difference up-down

 DOS related values:
   EMIN   =  10.00;   EMAX   =-10.00  energy-range for DOS
   EFERMI =   0.00;   METHOD = LEGACY      
   ISMEAR =     0;   SIGMA  =   0.03  broadening in eV -4-tet -1-fermi 0-gaus

 Electronic relaxation 2 (details)
   IALGO  =     38    algorithm
   LDIAG  =      T    sub-space diagonalisation (order eigenvalues)
   LSUBROT=      F    optimize rotation matrix (better conditioning)
   TURBO    =      0    0=normal 1=particle mesh
   IRESTART =      0    0=no restart 2=restart with 2 vectors
   NREBOOT  =      0    no. of reboots
   NMIN     =      0    reboot dimension
   EREF     =   0.00    reference energy to select bands
   IMIX   =      4    mixing-type and parameters
     AMIX     =   0.40;   BMIX     =  1.00
     AMIX_MAG =   1.60;   BMIX_MAG =  1.00
     AMIN     =   0.10
     WC   =   100.;   INIMIX=   1;  MIXPRE=   1;  MAXMIX= -45

 Intra band minimization:
   WEIMIN = 0.0000     energy-eigenvalue tresh-hold
   EBREAK =  0.21E-11  absolut break condition
   DEPER  =   0.30     relativ break condition  

   TIME   =   0.40     timestep for ELM

  volume/ion in A,a.u.               =      12.03        81.15
  Fermi-wavevector in a.u.,A,eV,Ry     =   1.589171  3.003097 34.361010  2.525463
  Thomas-Fermi vector in A             =   2.688061
 
 Write flags
   LWAVE        =      F    write WAVECAR
   LDOWNSAMPLE  =      F    k-point downsampling of WAVECAR
   LCHARG       =      T    write CHGCAR
   LVTOT        =      F    write LOCPOT, total local potential
   LVHAR        =      F    write LOCPOT, Hartree potential only
   LELF         =      F    write electronic localiz. function (ELF)
   LORBIT       =      0    0 simple, 1 ext, 2 COOP (PROOUT), +10 PAW based schemes


 Dipole corrections
   LMONO  =      F    monopole corrections only (constant potential shift)
   LDIPOL =      F    correct potential (dipole corrections)
   IDIPOL =      0    1-x, 2-y, 3-z, 4-all directions 
   EPSILON=  1.0000000 bulk dielectric constant

 Exchange correlation treatment:
   GGA     =    PE    GGA type
   LEXCH   =     8    internal setting for exchange type
   LIBXC   =     F    Libxc                    
   VOSKOWN =     0    Vosko Wilk Nusair interpolation
   LHFCALC =     F    Hartree Fock is set to
   LHFONE  =     F    Hartree Fock one center treatment
   AEXX    =    0.0000 exact exchange contribution

 Linear response parameters
   LEPSILON=     F    determine dielectric tensor
   LRPA    =     F    only Hartree local field effects (RPA)
   LNABLA  =     F    use nabla operator in PAW spheres
   LVEL    =     F    velocity operator in full k-point grid
   CSHIFT  =0.1000    complex shift for real part using Kramers Kronig
   OMEGAMAX=  -1.0    maximum frequency
   DEG_THRESHOLD= 0.2000000E-02 threshold for treating states as degnerate
   RTIME   =   -0.100 relaxation time in fs
  (WPLASMAI=    0.000 imaginary part of plasma frequency in eV, 0.658/RTIME)
   DFIELD  = 0.0000000 0.0000000 0.0000000 field for delta impulse in time
 
  Optional k-point grid parameters
   LKPOINTS_OPT  =     F    use optional k-point grid
   KPOINTS_OPT_MODE=     1    mode for optional k-point grid
 
 Orbital magnetization related:
   ORBITALMAG=     F  switch on orbital magnetization
   LCHIMAG   =     F  perturbation theory with respect to B field
   DQ        =  0.001000  dq finite difference perturbation B field
   LLRAUG    =     F  two centre corrections for induced B field
   LBONE     =     F  B-component reconstruction in AE one-centre
   LVGVCALC  =     T  calculate vGv susceptibility
   LVGVAPPL  =     F  apply vGv susceptibility instead of pGv for G=0

 Random number generation:
   RANDOM_GENERATOR = DEFAULT
   PCG_SEED         = not used


--------------------------------------------------------------------------------------------------------


 Static calculation
 charge density and potential will be updated during run
 non-spin polarized calculation
 Variant of blocked Davidson
 Davidson routine will perform the subspace rotation
 perform sub-space diagonalisation
    after iterative eigenvector-optimisation
 modified Broyden-mixing scheme, WC =      100.0
 initial mixing is a Kerker type mixing with AMIX =  0.4000 and BMIX =      1.0000
 Hartree-type preconditioning will be used
 using additional bands            6
 reciprocal scheme for non local part
 use partial core corrections
 calculate Harris-corrections to forces 
   (improved forces if not selfconsistent)
 use gradient corrections 
 use of overlap-Matrix (Vanderbilt PP)
 Gauss-broadening in eV      SIGMA  =   0.03


--------------------------------------------------------------------------------------------------------


  energy-cutoff  :      520.00
  volume of cell :       12.03
      direct lattice vectors                 reciprocal lattice vectors
     0.000000000  1.818410337  1.818410337    -0.274965441  0.274965441  0.274965441
     1.818410337  0.000000000  1.818410337     0.274965441 -0.274965441  0.274965441
     1.818410337  1.818410337  0.000000000     0.274965441  0.274965441 -0.274965441

  length of vectors
     2.571620560  2.571620560  2.571620560     0.476254114  0.476254114  0.476254114


 
 k-points in units of 2pi/SCALE and weight: KPOINTS                                 
   0.00000000  0.00000000  0.00000000       0.001
  -0.02749654  0.02749654  0.02749654       0.008
  -0.05499309  0.05499309  0.05499309       0.008
  -0.08248963  0.08248963  0.08248963       0.008
  -0.10998618  0.10998618  0.10998618       0.008
  -0.13748272  0.13748272  0.13748272       0.004
   0.00000000  0.00000000  0.05499309       0.006
  -0.02749654  0.02749654  0.08248963       0.024
  -0.05499309  0.05499309  0.10998618       0.024
  -0.08248963  0.08248963  0.13748272       0.024
  -0.10998618  0.10998618  0.16497926       0.024
   0.13748272 -0.13748272 -0.08248963       0.024
   0.10998618 -0.10998618 -0.05499309       0.024
   0.08248963 -0.08248963 -0.02749654       0.024
   0.05499309 -0.05499309  0.00000000       0.012
   0.00000000  0.00000000  0.10998618       0.006
  -0.02749654  0.02749654  0.13748272       0.024
  -0.05499309  0.05499309  0.16497926       0.024
  -0.08248963  0.08248963  0.19247581       0.024
   0.16497926 -0.16497926 -0.05499309       0.024
   0.13748272 -0.13748272 -0.02749654       0.024
   0.10998618 -0.10998618  0.00000000       0.012
   0.00000000  0.00000000  0.16497926       0.006
  -0.02749654  0.02749654  0.19247581       0.024
  -0.05499309  0.05499309  0.21997235       0.024
   0.19247581 -0.19247581 -0.02749654       0.024
   0.16497926 -0.16497926  0.00000000       0.012
   0.00000000  0.00000000  0.21997235       0.006
  -0.02749654  0.02749654  0.24746890       0.024
   0.21997235 -0.21997235  0.00000000       0.012
   0.00000000  0.00000000  0.27496544       0.003
   0.00000000  0.05499309  0.10998618       0.024
  -0.02749654  0.08248963  0.13748272       0.048
  -0.05499309  0.10998618  0.16497926       0.048
   0.19247581 -0.13748272 -0.08248963       0.024
   0.00000000  0.05499309  0.16497926       0.024
  -0.02749654  0.08248963  0.19247581       0.048
   0.21997235 -0.16497926 -0.05499309       0.048
   0.19247581 -0.13748272 -0.02749654       0.048
   0.16497926 -0.10998618 -0.00000000       0.024
   0.00000000  0.05499309  0.21997235       0.024
   0.24746890 -0.19247581 -0.02749654       0.048
   0.21997235 -0.16497926 -0.00000000       0.024
   0.27496544 -0.21997235  0.00000000       0.012
   0.27496544 -0.16497926 -0.05499309       0.024
   0.24746890 -0.13748272 -0.02749654       0.024
   0.27496544 -0.16497926  0.00000000       0.012
 
 k-points in reciprocal lattice and weights: KPOINTS                                 
   0.00000000  0.00000000  0.00000000       0.001
   0.10000000  0.00000000  0.00000000       0.008
   0.20000000  0.00000000  0.00000000       0.008
   0.30000000  0.00000000  0.00000000       0.008
   0.40000000  0.00000000  0.00000000       0.008
   0.50000000  0.00000000  0.00000000       0.004
   0.10000000  0.10000000  0.00000000       0.006
   0.20000000  0.10000000  0.00000000       0.024
   0.30000000  0.10000000  0.00000000       0.024
   0.40000000  0.10000000  0.00000000       0.024
   0.50000000  0.10000000  0.00000000       0.024
  -0.40000000  0.10000000  0.00000000       0.024
  -0.30000000  0.10000000  0.00000000       0.024
  -0.20000000  0.10000000  0.00000000       0.024
  -0.10000000  0.10000000  0.00000000       0.012
   0.20000000  0.20000000  0.00000000       0.006
   0.30000000  0.20000000  0.00000000       0.024
   0.40000000  0.20000000  0.00000000       0.024
   0.50000000  0.20000000  0.00000000       0.024
  -0.40000000  0.20000000  0.00000000       0.024
  -0.30000000  0.20000000  0.00000000       0.024
  -0.20000000  0.20000000  0.00000000       0.012
   0.30000000  0.30000000  0.00000000       0.006
   0.40000000  0.30000000  0.00000000       0.024
   0.50000000  0.30000000  0.00000000       0.024
  -0.40000000  0.30000000  0.00000000       0.024
  -0.30000000  0.30000000  0.00000000       0.012
   0.40000000  0.40000000  0.00000000       0.006
   0.50000000  0.40000000  0.00000000       0.024
  -0.40000000  0.40000000  0.00000000       0.012
   0.50000000  0.50000000  0.00000000       0.003
   0.30000000  0.20000000  0.10000000       0.024
   0.40000000  0.20000000  0.10000000       0.048
   0.50000000  0.20000000  0.10000000       0.048
  -0.40000000  0.20000000  0.10000000       0.024
   0.40000000  0.30000000  0.10000000       0.024
   0.50000000  0.30000000  0.10000000       0.048
  -0.40000000  0.30000000  0.10000000       0.048
  -0.30000000  0.30000000  0.10000000       0.048
  -0.20000000  0.30000000  0.10000000       0.024
   0.50000000  0.40000000  0.10000000       0.024
  -0.40000000  0.40000000  0.10000000       0.048
  -0.30000000  0.40000000  0.10000000       0.024
  -0.40000000  0.50000000  0.10000000       0.012
  -0.40000000  0.40000000  0.20000000       0.024
  -0.30000000  0.40000000  0.20000000       0.024
  -0.30000000  0.50000000  0.20000000       0.012
 
 position of ions in fractional coordinates (direct lattice) 
   0.00000000  0.00000000  0.00000000
 
 position of ions in cartesian coordinates  (Angst):
   0.00000000  0.00000000  0.00000000
 


--------------------------------------------------------------------------------------------------------


 k-point   1 :   0.0000 0.0000 0.0000  plane waves:     331
 k-point   2 :   0.1000 0.0000 0.0000  plane waves:     329
 k-point   3 :   0.2000 0.0000 0.0000  plane waves:     320
 k-point   4 :   0.3000 0.0000 0.0000  plane waves:     317
 k-point   5 :   0.4000 0.0000 0.0000  plane waves:     323
 k-point   6 :   0.5000 0.0000 0.0000  plane waves:     332
 k-point   7 :   0.1000 0.1000 0.0000  plane waves:     327
 k-point   8 :   0.2000 0.1000 0.0000  plane waves:     321
 k-point   9 :   0.3000 0.1000 0.0000  plane waves:     322
 k-point  10 :   0.4000 0.1000 0.0000  plane waves:     328
 k-point  11 :   0.5000 0.1000 0.0000  plane waves:     329
 k-point  12 :  -0.4000 0.1000 0.0000  plane waves:     326
 k-point  13 :  -0.3000 0.1000 0.0000  plane waves:     320
 k-point  14 :  -0.2000 0.1000 0.0000  plane waves:     320
 k-point  15 :  -0.1000 0.1000 0.0000  plane waves:     325
 k-point  16 :   0.2000 0.2000 0.0000  plane waves:     323
 k-point  17 :   0.3000 0.2000 0.0000  plane waves:     322
 k-point  18 :   0.4000 0.2000 0.0000  plane waves:     324
 k-point  19 :   0.5000 0.2000 0.0000  plane waves:     323
 k-point  20 :  -0.4000 0.2000 0.0000  plane waves:     328
 k-point  21 :  -0.3000 0.2000 0.0000  plane waves:     325
 k-point  22 :  -0.2000 0.2000 0.0000  plane waves:     323
 k-point  23 :   0.3000 0.3000 0.0000  plane waves:     323
 k-point  24 :   0.4000 0.3000 0.0000  plane waves:     327
 k-point  25 :   0.5000 0.3000 0.0000  plane waves:     326
 k-point  26 :  -0.4000 0.3000 0.0000  plane waves:     324
 k-point  27 :  -0.3000 0.3000 0.0000  plane waves:     329
 k-point  28 :   0.4000 0.4000 0.0000  plane waves:     322
 k-point  29 :   0.5000 0.4000 0.0000  plane waves:     328
 k-point  30 :  -0.4000 0.4000 0.0000  plane waves:     322
 k-point  31 :   0.5000 0.5000 0.0000  plane waves:     326
 k-point  32 :   0.3000 0.2000 0.1000  plane waves:     320
 k-point  33 :   0.4000 0.2000 0.1000  plane waves:     321
 k-point  34 :   0.5000 0.2000 0.1000  plane waves:     323
 k-point  35 :  -0.4000 0.2000 0.1000  plane waves:     326
 k-point  36 :   0.4000 0.3000 0.1000  plane waves:     323
 k-point  37 :   0.5000 0.3000 0.1000  plane waves:     324
 k-point  38 :  -0.4000 0.3000 0.1000  plane waves:     322
 k-point  39 :  -0.3000 0.3000 0.1000  plane waves:     324
 k-point  40 :  -0.2000 0.3000 0.1000  plane waves:     324
 k-point  41 :   0.5000 0.4000 0.1000  plane waves:     326
 k-point  42 :  -0.4000 0.4000 0.1000  plane waves:     327
 k-point  43 :  -0.3000 0.4000 0.1000  plane waves:     325
 k-point  44 :  -0.4000 0.5000 0.1000  plane waves:     324
 k-point  45 :  -0.4000 0.4000 0.2000  plane waves:     325
 k-point  46 :  -0.3000 0.4000 0.2000  plane waves:     324
 k-point  47 :  -0.3000 0.5000 0.2000  plane waves:     322

 maximum and minimum number of plane-waves per node :       332      317

 maximum number of plane-waves:       332
 maximum index in each direction: 
   IXMAX=    5   IYMAX=    4   IZMAX=    4
   IXMIN=   -5   IYMIN=   -5   IZMIN=   -4


 serial   3D FFT for wavefunctions
 parallel 3D FFT for charge:
    minimum data exchange during FFTs selected (reduces bandwidth)


 total amount of memory used by VASP MPI-rank0    34776. kBytes
=======================================================================

   base      :      30000. kBytes
   nonl-proj :       2252. kBytes
   fftplans  :        595. kBytes
   grid      :       1120. kBytes
   one-center:         15. kBytes
   wavefun   :        794. kBytes
 
     INWAV:  cpu time      0.0001: real time      0.0006
 Broyden mixing: mesh for mixing (old mesh)
   NGX =  9   NGY =  9   NGZ =  9
  (NGX  = 40   NGY  = 40   NGZ  = 40)
  gives a total of    729 points

 initial charge density was supplied:
 charge density of overlapping atoms calculated
 number of electron      11.0000000 magnetization 
 keeping initial charge density in first step


--------------------------------------------------------------------------------------------------------


 Maximum index for augmentation-charges         4713 (set IRDMAX)


--------------------------------------------------------------------------------------------------------


 First call to EWALD:  gamma=   0.774
 Maximum number of real-space cells 3x 3x 3
 Maximum number of reciprocal cells 3x 3x 3

    FEWALD:  cpu time      0.0014: real time      0.0014


--------------------------------------- Ionic step        1  -------------------------------------------




--------------------------------------- Iteration      1(   1)  ---------------------------------------


    POTLOK:  cpu time      0.0102: real time      0.0187
    SETDIJ:  cpu time      0.0034: real time      0.0034
     EDDAV:  cpu time      0.2093: real time      0.2158
       DOS:  cpu time      0.0006: real time      0.0006
    --------------------------------------------
      LOOP:  cpu time      0.2235: real time      0.2385

 eigenvalue-minimisations  :  1276
 total energy-change (2. order) : 0.3943478E+02  (-0.5351495E+03)
 number of electron      11.0000000 magnetization 
 augmentation part       11.0000000 magnetization 

 Free energy of the ion-electron system (eV)
  ---------------------------------------------------
  alpha Z        PSCENC =        60.81441780
  Ewald energy   TEWEN  =     -1098.28698219
  -Hartree energ DENC   =      -365.46790050
  -exchange      EXHF   =         0.00000000
  -V(xc)+E(xc)   XCENC  =        45.73508064
  PAW double counting   =      1228.20665988    -1334.04846713
  entropy T*S    EENTRO =        -0.00040265
  eigenvalues    EBANDS =       111.50532238
  atomic energy  EATOM  =      1390.97705399
  Solvation  Ediel_sol  =         0.00000000
  ---------------------------------------------------
  free energy    TOTEN  =        39.43478223 eV

  energy without entropy =       39.43518488  energy(sigma->0) =       39.43498356


--------------------------------------------------------------------------------------------------------




--------------------------------------- Iteration      1(   2)  ---------------------------------------


     EDDAV:  cpu time      0.1920: real time      0.1952
       DOS:  cpu time      0.0005: real time      0.0005
    --------------------------------------------
      LOOP:  cpu time      0.1926: real time      0.1957

 eigenvalue-minimisations  :  1168
 total energy-change (2. order) :-0.4276912E+02  (-0.3905536E+02)
 number of electron      11.0000000 magnetization 
 augmentation part       11.0000000 magnetization 

 Free energy of the ion-electron system (eV)
  ---------------------------------------------------
  alpha Z        PSCENC =        60.81441780
  Ewald energy   TEWEN  =     -1098.28698219
  -Hartree energ DENC   =      -365.46790050
  -exchange      EXHF   =         0.00000000
  -V(xc)+E(xc)   XCENC  =        45.73508064
  PAW double counting   =      1228.20665988    -1334.04846713
  entropy T*S    EENTRO =        -0.00045501
  eigenvalues    EBANDS =        68.73625205
  atomic energy  EATOM  =      1390.97705399
  Solvation  Ediel_sol  =         0.00000000
  ---------------------------------------------------
  free energy    TOTEN  =        -3.33434047 eV

  energy without entropy =       -3.33388545  energy(sigma->0) =       -3.33411296


--------------------------------------------------------------------------------------------------------




--------------------------------------- Iteration      1(   3)  ---------------------------------------


     EDDAV:  cpu time      0.2130: real time      0.2164
       DOS:  cpu time      0.0005: real time      0.0005
    --------------------------------------------
      LOOP:  cpu time      0.2135: real time      0.2169

 eigenvalue-minimisations  :  1348
 total energy-change (2. order) :-0.1268138E+01  (-0.1252670E+01)
 number of electron      11.0000000 magnetization 
 augmentation part       11.0000000 magnetization 

 Free energy of the ion-electron system (eV)
  ---------------------------------------------------
  alpha Z        PSCENC =        60.81441780
  Ewald energy   TEWEN  =     -1098.28698219
  -Hartree energ DENC   =      -365.46790050
  -exchange      EXHF   =         0.00000000
  -V(xc)+E(xc)   XCENC  =        45.73508064
  PAW double counting   =      1228.20665988    -1334.04846713
  entropy T*S    EENTRO =        -0.00037118
  eigenvalues    EBANDS =        67.46803003
  atomic energy  EATOM  =      1390.97705399
  Solvation  Ediel_sol  =         0.00000000
  ---------------------------------------------------
  free energy    TOTEN  =        -4.60247865 eV

  energy without entropy =       -4.60210747  energy(sigma->0) =       -4.60229306


--------------------------------------------------------------------------------------------------------




--------------------------------------- Iteration      1(   4)  ---------------------------------------


     EDDAV:  cpu time      0.2133: real time      0.2176
       DOS:  cpu time      0.0005: real time      0.0005
    --------------------------------------------
      LOOP:  cpu time      0.2139: real time      0.2182

 eigenvalue-minimisations  :  1300
 total energy-change (2. order) :-0.9317495E-02  (-0.9316669E-02)
 number of electron      11.0000000 magnetization 
 augmentation part       11.0000000 magnetization 

 Free energy of the ion-electron system (eV)
  ---------------------------------------------------
  alpha Z        PSCENC =        60.81441780
  Ewald energy   TEWEN  =     -1098.28698219
  -Hartree energ DENC   =      -365.46790050
  -exchange      EXHF   =         0.00000000
  -V(xc)+E(xc)   XCENC  =        45.73508064
  PAW double counting   =      1228.20665988    -1334.04846713
  entropy T*S    EENTRO =        -0.00037238
  eigenvalues    EBANDS =        67.45871374
  atomic energy  EATOM  =      1390.97705399
  Solvation  Ediel_sol  =         0.00000000
  ---------------------------------------------------
  free energy    TOTEN  =        -4.61179614 eV

  energy without entropy =       -4.61142376  energy(sigma->0) =       -4.61160995


--------------------------------------------------------------------------------------------------------




--------------------------------------- Iteration      1(   5)  ---------------------------------------


     EDDAV:  cpu time      0.2144: real time      0.2176
       DOS:  cpu time      0.0005: real time      0.0005
    CHARGE:  cpu time      0.0149: real time      0.0150
    MIXING:  cpu time      0.0005: real time      0.0004
    --------------------------------------------
      LOOP:  cpu time      0.2303: real time      0.2336

 eigenvalue-minimisations  :  1356
 total energy-change (2. order) :-0.9063851E-04  (-0.9063676E-04)
 number of electron      10.9999996 magnetization 
 augmentation part        6.4912979 magnetization 

 Broyden mixing:
  rms(total) = 0.76295E+00    rms(broyden)= 0.76293E+00
  rms(prec ) = 0.29008E+01
  weight for this iteration     100.00

 Free energy of the ion-electron system (eV)
  ---------------------------------------------------
  alpha Z        PSCENC =        60.81441780
  Ewald energy   TEWEN  =     -1098.28698219
  -Hartree energ DENC   =      -365.46790050
  -exchange      EXHF   =         0.00000000
  -V(xc)+E(xc)   XCENC  =        45.73508064
  PAW double counting   =      1228.20665988    -1334.04846713
  entropy T*S    EENTRO =        -0.00037239
  eigenvalues    EBANDS =        67.45862311
  atomic energy  EATOM  =      1390.97705399
  Solvation  Ediel_sol  =         0.00000000
  ---------------------------------------------------
  free energy    TOTEN  =        -4.61188678 eV

  energy without entropy =       -4.61151439  energy(sigma->0) =       -4.61170059


--------------------------------------------------------------------------------------------------------




--------------------------------------- Iteration      1(   6)  ---------------------------------------


    POTLOK:  cpu time      0.0116: real time      0.0122
    SETDIJ:  cpu time      0.0024: real time      0.0024
     EDDAV:  cpu time      0.2105: real time      0.2132
       DOS:  cpu time      0.0005: real time      0.0005
    CHARGE:  cpu time      0.0146: real time      0.0147
    MIXING:  cpu time      0.0006: real time      0.0008
    --------------------------------------------
      LOOP:  cpu time      0.2402: real time      0.2438

 eigenvalue-minimisations  :  1336
 total energy-change (2. order) : 0.5069626E+00  (-0.1455471E+01)
 number of electron      10.9999995 magnetization 
 augmentation part        7.3222051 magnetization 

 Broyden mixing:
  rms(total) = 0.40106E+00    rms(broyden)= 0.40104E+00
  rms(prec ) = 0.13863E+01
  weight for this iteration     100.00

 eigenvalues of (default mixing * dielectric matrix)
  average eigenvalue GAMMA=   0.6561
  0.6561

 Free energy of the ion-electron system (eV)
  ---------------------------------------------------
  alpha Z        PSCENC =        60.81441780
  Ewald energy   TEWEN  =     -1098.28698219
  -Hartree energ DENC   =      -337.48573092
  -exchange      EXHF   =         0.00000000
  -V(xc)+E(xc)   XCENC  =        44.34814562
  PAW double counting   =      1244.82171608    -1345.10702475
  entropy T*S    EENTRO =        -0.00046595
  eigenvalues    EBANDS =        35.81394610
  atomic energy  EATOM  =      1390.97705399
  Solvation  Ediel_sol  =         0.00000000
  ---------------------------------------------------
  free energy    TOTEN  =        -4.10492422 eV

  energy without entropy =       -4.10445827  energy(sigma->0) =       -4.10469124


--------------------------------------------------------------------------------------------------------




--------------------------------------- Iteration      1(   7)  ---------------------------------------


    POTLOK:  cpu time      0.0098: real time      0.0114
    SETDIJ:  cpu time      0.0024: real time      0.0024
     EDDAV:  cpu time      0.2093: real time      0.2118
       DOS:  cpu time      0.0005: real time      0.0005
    CHARGE:  cpu time      0.0145: real time      0.0146
    MIXING:  cpu time      0.0004: real time      0.0004
    --------------------------------------------
      LOOP:  cpu time      0.2369: real time      0.2411

 eigenvalue-minimisations  :  1340
 total energy-change (2. order) : 0.3794419E+00  (-0.2358503E+00)
 number of electron      10.9999995 magnetization 
 augmentation part        6.9975029 magnetization 

 Broyden mixing:
  rms(total) = 0.56155E-01    rms(broyden)= 0.56145E-01
  rms(prec ) = 0.23186E+00
  weight for this iteration     100.00

 eigenvalues of (default mixing * dielectric matrix)
  average eigenvalue GAMMA=   1.4143
  2.1958  0.6328

 Free energy of the ion-electron system (eV)
  ---------------------------------------------------
  alpha Z        PSCENC =        60.81441780
  Ewald energy   TEWEN  =     -1098.28698219
  -Hartree energ DENC   =      -346.27361854
  -exchange      EXHF   =         0.00000000
  -V(xc)+E(xc)   XCENC  =        44.80671486
  PAW double counting   =      1269.03181521    -1374.12410366
  entropy T*S    EENTRO =        -0.00035960
  eigenvalues    EBANDS =        49.32957984
  atomic energy  EATOM  =      1390.97705399
  Solvation  Ediel_sol  =         0.00000000
  ---------------------------------------------------
  free energy    TOTEN  =        -3.72548229 eV

  energy without entropy =       -3.72512269  energy(sigma->0) =       -3.72530249


--------------------------------------------------------------------------------------------------------




--------------------------------------- Iteration      1(   8)  ---------------------------------------


    POTLOK:  cpu time      0.0139: real time      0.0147
    SETDIJ:  cpu time      0.0024: real time      0.0024
     EDDAV:  cpu time      0.2146: real time      0.2172
       DOS:  cpu time      0.0005: real time      0.0005
    CHARGE:  cpu time      0.0165: real time      0.0167
    MIXING:  cpu time      0.0005: real time      0.0005
    --------------------------------------------
      LOOP:  cpu time      0.2485: real time      0.2521

 eigenvalue-minimisations  :  1308
 total energy-change (2. order) : 0.1026958E-01  (-0.4578196E-03)
 number of electron      10.9999995 magnetization 
 augmentation part        6.9934273 magnetization 

 Broyden mixing:
  rms(total) = 0.31159E-01    rms(broyden)= 0.31158E-01
  rms(prec ) = 0.12167E+00
  weight for this iteration     100.00

 eigenvalues of (default mixing * dielectric matrix)
  average eigenvalue GAMMA=   1.4150
  0.6492  1.0059  2.5900

 Free energy of the ion-electron system (eV)
  ---------------------------------------------------
  alpha Z        PSCENC =        60.81441780
  Ewald energy   TEWEN  =     -1098.28698219
  -Hartree energ DENC   =      -343.38615158
  -exchange      EXHF   =         0.00000000
  -V(xc)+E(xc)   XCENC  =        44.68800711
  PAW double counting   =      1305.88959984    -1413.54521413
  entropy T*S    EENTRO =        -0.00035557
  eigenvalues    EBANDS =        49.13441201
  atomic energy  EATOM  =      1390.97705399
  Solvation  Ediel_sol  =         0.00000000
  ---------------------------------------------------
  free energy    TOTEN  =        -3.71521271 eV

  energy without entropy =       -3.71485714  energy(sigma->0) =       -3.71503493


--------------------------------------------------------------------------------------------------------




--------------------------------------- Iteration      1(   9)  ---------------------------------------


    POTLOK:  cpu time      0.0107: real time      0.0127
    SETDIJ:  cpu time      0.0026: real time      0.0026
     EDDAV:  cpu time      0.2188: real time      0.2214
       DOS:  cpu time      0.0005: real time      0.0006
    CHARGE:  cpu time      0.0144: real time      0.0145
    MIXING:  cpu time      0.0007: real time      0.0009
    --------------------------------------------
      LOOP:  cpu time      0.2477: real time      0.2526

 eigenvalue-minimisations  :  1408
 total energy-change (2. order) : 0.1705514E-02  (-0.1073405E-02)
 number of electron      10.9999995 magnetization 
 augmentation part        7.0156232 magnetization 

 Broyden mixing:
  rms(total) = 0.31020E-02    rms(broyden)= 0.31011E-02
  rms(prec ) = 0.10902E-01
  weight for this iteration     100.00

 eigenvalues of (default mixing * dielectric matrix)
  average eigenvalue GAMMA=   1.5970
  0.6519  0.9524  2.6114  2.1725

 Free energy of the ion-electron system (eV)
  ---------------------------------------------------
  alpha Z        PSCENC =        60.81441780
  Ewald energy   TEWEN  =     -1098.28698219
  -Hartree energ DENC   =      -342.16577461
  -exchange      EXHF   =         0.00000000
  -V(xc)+E(xc)   XCENC  =        44.63193388
  PAW double counting   =      1312.17687486    -1420.06326504
  entropy T*S    EENTRO =        -0.00034955
  eigenvalues    EBANDS =        48.20258367
  atomic energy  EATOM  =      1390.97705399
  Solvation  Ediel_sol  =         0.00000000
  ---------------------------------------------------
  free energy    TOTEN  =        -3.71350720 eV

  energy without entropy =       -3.71315765  energy(sigma->0) =       -3.71333242


--------------------------------------------------------------------------------------------------------




--------------------------------------- Iteration      1(  10)  ---------------------------------------


    POTLOK:  cpu time      0.0145: real time      0.0153
    SETDIJ:  cpu time      0.0023: real time      0.0024
     EDDAV:  cpu time      0.2469: real time      0.2500
       DOS:  cpu time      0.0005: real time      0.0005
    CHARGE:  cpu time      0.0145: real time      0.0146
    MIXING:  cpu time      0.0005: real time      0.0005
    --------------------------------------------
      LOOP:  cpu time      0.2793: real time      0.2833

 eigenvalue-minimisations  :  1656
 total energy-change (2. order) :-0.8437264E-06  (-0.3975099E-05)
 number of electron      10.9999995 magnetization 
 augmentation part        7.0146327 magnetization 

 Broyden mixing:
  rms(total) = 0.10024E-02    rms(broyden)= 0.10023E-02
  rms(prec ) = 0.32864E-02
  weight for this iteration     100.00

 eigenvalues of (default mixing * dielectric matrix)
  average eigenvalue GAMMA=   1.5335
  2.6093  2.5221  0.6515  0.9422  0.9422

 Free energy of the ion-electron system (eV)
  ---------------------------------------------------
  alpha Z        PSCENC =        60.81441780
  Ewald energy   TEWEN  =     -1098.28698219
  -Hartree energ DENC   =      -342.26410133
  -exchange      EXHF   =         0.00000000
  -V(xc)+E(xc)   XCENC  =        44.63671789
  PAW double counting   =      1311.36431624    -1419.19673467
  entropy T*S    EENTRO =        -0.00034957
  eigenvalues    EBANDS =        48.24215379
  atomic energy  EATOM  =      1390.97705399
  Solvation  Ediel_sol  =         0.00000000
  ---------------------------------------------------
  free energy    TOTEN  =        -3.71350804 eV

  energy without entropy =       -3.71315847  energy(sigma->0) =       -3.71333326


--------------------------------------------------------------------------------------------------------




--------------------------------------- Iteration      1(  11)  ---------------------------------------


    POTLOK:  cpu time      0.0176: real time      0.0279
    SETDIJ:  cpu time      0.0024: real time      0.0025
     EDDAV:  cpu time      0.2158: real time      0.2184
       DOS:  cpu time      0.0005: real time      0.0005
    CHARGE:  cpu time      0.0147: real time      0.0148
    MIXING:  cpu time      0.0005: real time      0.0005
    --------------------------------------------
      LOOP:  cpu time      0.2515: real time      0.2645

 eigenvalue-minimisations  :  1400
 total energy-change (2. order) : 0.1323569E-05  (-0.1980997E-06)
 number of electron      10.9999995 magnetization 
 augmentation part        7.0143606 magnetization 

 Broyden mixing:
  rms(total) = 0.24847E-04    rms(broyden)= 0.24826E-04
  rms(prec ) = 0.69633E-04
  weight for this iteration     100.00

 eigenvalues of (default mixing * dielectric matrix)
  average eigenvalue GAMMA=   1.4942
  2.6357  2.4597  0.6517  0.9393  1.0493  1.2295

 Free energy of the ion-electron system (eV)
  ---------------------------------------------------
  alpha Z        PSCENC =        60.81441780
  Ewald energy   TEWEN  =     -1098.28698219
  -Hartree energ DENC   =      -342.31784755
  -exchange      EXHF   =         0.00000000
  -V(xc)+E(xc)   XCENC  =        44.63938774
  PAW double counting   =      1310.79305726    -1418.58413789
  entropy T*S    EENTRO =        -0.00034958
  eigenvalues    EBANDS =        48.25189369
  atomic energy  EATOM  =      1390.97705399
  Solvation  Ediel_sol  =         0.00000000
  ---------------------------------------------------
  free energy    TOTEN  =        -3.71350672 eV

  energy without entropy =       -3.71315714  energy(sigma->0) =       -3.71333193


--------------------------------------------------------------------------------------------------------




--------------------------------------- Iteration      1(  12)  ---------------------------------------


    POTLOK:  cpu time      0.0097: real time      0.0135
    SETDIJ:  cpu time      0.0023: real time      0.0024
     EDDAV:  cpu time      0.2126: real time      0.2152
       DOS:  cpu time      0.0005: real time      0.0005
    CHARGE:  cpu time      0.0144: real time      0.0145
    MIXING:  cpu time      0.0005: real time      0.0005
    --------------------------------------------
      LOOP:  cpu time      0.2401: real time      0.2465

 eigenvalue-minimisations  :  1344
 total energy-change (2. order) :-0.1072690E-06  (-0.1729856E-08)
 number of electron      10.9999995 magnetization 
 augmentation part        7.0143511 magnetization 

 Broyden mixing:
  rms(total) = 0.14311E-04    rms(broyden)= 0.14310E-04
  rms(prec ) = 0.46748E-04
  weight for this iteration     100.00

 eigenvalues of (default mixing * dielectric matrix)
  average eigenvalue GAMMA=   1.6300
  2.6655  2.6655  2.4458  0.6516  1.0654  0.9879  0.9284

 Free energy of the ion-electron system (eV)
  ---------------------------------------------------
  alpha Z        PSCENC =        60.81441780
  Ewald energy   TEWEN  =     -1098.28698219
  -Hartree energ DENC   =      -342.31737519
  -exchange      EXHF   =         0.00000000
  -V(xc)+E(xc)   XCENC  =        44.63936323
  PAW double counting   =      1310.80210951    -1418.59410057
  entropy T*S    EENTRO =        -0.00034958
  eigenvalues    EBANDS =        48.25235617
  atomic energy  EATOM  =      1390.97705399
  Solvation  Ediel_sol  =         0.00000000
  ---------------------------------------------------
  free energy    TOTEN  =        -3.71350683 eV

  energy without entropy =       -3.71315725  energy(sigma->0) =       -3.71333204


--------------------------------------------------------------------------------------------------------




--------------------------------------- Iteration      1(  13)  ---------------------------------------


    POTLOK:  cpu time      0.0113: real time      0.0201
    SETDIJ:  cpu time      0.0024: real time      0.0024
     EDDAV:  cpu time      0.2352: real time      0.2382
       DOS:  cpu time      0.0005: real time      0.0005
    CHARGE:  cpu time      0.0145: real time      0.0146
    MIXING:  cpu time      0.0005: real time      0.0005
    --------------------------------------------
      LOOP:  cpu time      0.2643: real time      0.2763

 eigenvalue-minimisations  :  1536
 total energy-change (2. order) :-0.2401725E-07  (-0.3056201E-09)
 number of electron      10.9999995 magnetization 
 augmentation part        7.0143425 magnetization 

 Broyden mixing:
  rms(total) = 0.49431E-05    rms(broyden)= 0.49427E-05
  rms(prec ) = 0.18266E-04
  weight for this iteration     100.00

 eigenvalues of (default mixing * dielectric matrix)
  average eigenvalue GAMMA=   1.5872
  2.7562  2.5256  2.5256  0.6516  0.9534  0.9806  1.0473  1.2571

 Free energy of the ion-electron system (eV)
  ---------------------------------------------------
  alpha Z        PSCENC =        60.81441780
  Ewald energy   TEWEN  =     -1098.28698219
  -Hartree energ DENC   =      -342.31802706
  -exchange      EXHF   =         0.00000000
  -V(xc)+E(xc)   XCENC  =        44.63939230
  PAW double counting   =      1310.79303169    -1418.58486199
  entropy T*S    EENTRO =        -0.00034958
  eigenvalues    EBANDS =        48.25281818
  atomic energy  EATOM  =      1390.97705399
  Solvation  Ediel_sol  =         0.00000000
  ---------------------------------------------------
  free energy    TOTEN  =        -3.71350685 eV

  energy without entropy =       -3.71315728  energy(sigma->0) =       -3.71333206


--------------------------------------------------------------------------------------------------------




--------------------------------------- Iteration      1(  14)  ---------------------------------------


    POTLOK:  cpu time      0.0253: real time      0.0386
    SETDIJ:  cpu time      0.0024: real time      0.0024
     EDDAV:  cpu time      0.1575: real time      0.1593
       DOS:  cpu time      0.0005: real time      0.0005
    CHARGE:  cpu time      0.0143: real time      0.0144
    MIXING:  cpu time      0.0005: real time      0.0005
    --------------------------------------------
      LOOP:  cpu time      0.2005: real time      0.2158

 eigenvalue-minimisations  :   864
 total energy-change (2. order) :-0.1032049E-07  (-0.1481672E-10)
 number of electron      10.9999995 magnetization 
 augmentation part        7.0143450 magnetization 

 Broyden mixing:
  rms(total) = 0.41821E-06    rms(broyden)= 0.41816E-06
  rms(prec ) = 0.63537E-06
  weight for this iteration     100.00

 eigenvalues of (default mixing * dielectric matrix)
  average eigenvalue GAMMA=   1.6575
  2.6633  2.6633  2.4934  2.4934  0.6516  1.0146  1.0146  0.9616  0.9616

 Free energy of the ion-electron system (eV)
  ---------------------------------------------------
  alpha Z        PSCENC =        60.81441780
  Ewald energy   TEWEN  =     -1098.28698219
  -Hartree energ DENC   =      -342.31779262
  -exchange      EXHF   =         0.00000000
  -V(xc)+E(xc)   XCENC  =        44.63938114
  PAW double counting   =      1310.79400159    -1418.58595553
  entropy T*S    EENTRO =        -0.00034958
  eigenvalues    EBANDS =        48.25271853
  atomic energy  EATOM  =      1390.97705399
  Solvation  Ediel_sol  =         0.00000000
  ---------------------------------------------------
  free energy    TOTEN  =        -3.71350686 eV

  energy without entropy =       -3.71315729  energy(sigma->0) =       -3.71333207


--------------------------------------------------------------------------------------------------------




--------------------------------------- Iteration      1(  15)  ---------------------------------------


    POTLOK:  cpu time      0.0101: real time      0.0127
    SETDIJ:  cpu time      0.0024: real time      0.0024
     EDDAV:  cpu time      0.1411: real time      0.1429
       DOS:  cpu time      0.0004: real time      0.0004
    CHARGE:  cpu time      0.0145: real time      0.0147
    MIXING:  cpu time      0.0006: real time      0.0006
    --------------------------------------------
      LOOP:  cpu time      0.1691: real time      0.1736

 eigenvalue-minimisations  :   708
 total energy-change (2. order) : 0.1217131E-08  (-0.4920853E-12)
 number of electron      10.9999995 magnetization 
 augmentation part        7.0143448 magnetization 

 Broyden mixing:
  rms(total) = 0.16243E-06    rms(broyden)= 0.16243E-06
  rms(prec ) = 0.46194E-06
  weight for this iteration     100.00

 eigenvalues of (default mixing * dielectric matrix)
  average eigenvalue GAMMA=   1.5723
  2.7622  2.6157  2.4698  2.4698  0.6516  1.0374  0.9732  0.9640  0.9640  0.8151

 Free energy of the ion-electron system (eV)
  ---------------------------------------------------
  alpha Z        PSCENC =        60.81441780
  Ewald energy   TEWEN  =     -1098.28698219
  -Hartree energ DENC   =      -342.31779861
  -exchange      EXHF   =         0.00000000
  -V(xc)+E(xc)   XCENC  =        44.63938141
  PAW double counting   =      1310.79310392    -1418.58505606
  entropy T*S    EENTRO =        -0.00034958
  eigenvalues    EBANDS =        48.25272245
  atomic energy  EATOM  =      1390.97705399
  Solvation  Ediel_sol  =         0.00000000
  ---------------------------------------------------
  free energy    TOTEN  =        -3.71350686 eV

  energy without entropy =       -3.71315728  energy(sigma->0) =       -3.71333207


--------------------------------------------------------------------------------------------------------




--------------------------------------- Iteration      1(  16)  ---------------------------------------


    POTLOK:  cpu time      0.0099: real time      0.0501
    SETDIJ:  cpu time      0.0023: real time      0.0024
     EDDAV:  cpu time      0.1427: real time      0.1448
       DOS:  cpu time      0.0006: real time      0.0007
    CHARGE:  cpu time      0.0147: real time      0.0148
    MIXING:  cpu time      0.0006: real time      0.0006
    --------------------------------------------
      LOOP:  cpu time      0.1708: real time      0.2133

 eigenvalue-minimisations  :   676
 total energy-change (2. order) : 0.1403805E-08  (-0.1613069E-12)
 number of electron      10.9999995 magnetization 
 augmentation part        7.0143449 magnetization 

 Broyden mixing:
  rms(total) = 0.50661E-07    rms(broyden)= 0.50646E-07
  rms(prec ) = 0.13424E-06
  weight for this iteration     100.00

 eigenvalues of (default mixing * dielectric matrix)
  average eigenvalue GAMMA=   1.5660
  2.7948  2.5451  2.5451  2.5306  0.6516  1.1194  1.1194  0.9462  0.9462  0.9661
  1.0618

 Free energy of the ion-electron system (eV)
  ---------------------------------------------------
  alpha Z        PSCENC =        60.81441780
  Ewald energy   TEWEN  =     -1098.28698219
  -Hartree energ DENC   =      -342.31779774
  -exchange      EXHF   =         0.00000000
  -V(xc)+E(xc)   XCENC  =        44.63938136
  PAW double counting   =      1310.79282165    -1418.58477108
  entropy T*S    EENTRO =        -0.00034958
  eigenvalues    EBANDS =        48.25271892
  atomic energy  EATOM  =      1390.97705399
  Solvation  Ediel_sol  =         0.00000000
  ---------------------------------------------------
  free energy    TOTEN  =        -3.71350686 eV

  energy without entropy =       -3.71315728  energy(sigma->0) =       -3.71333207


--------------------------------------------------------------------------------------------------------




--------------------------------------- Iteration      1(  17)  ---------------------------------------


    POTLOK:  cpu time      0.0117: real time      0.0161
    SETDIJ:  cpu time      0.0024: real time      0.0024
     EDDAV:  cpu time      0.1391: real time      0.1409
       DOS:  cpu time      0.0005: real time      0.0005
    CHARGE:  cpu time      0.0143: real time      0.0145
    MIXING:  cpu time      0.0007: real time      0.0007
    --------------------------------------------
      LOOP:  cpu time      0.1687: real time      0.1750

 eigenvalue-minimisations  :   688
 total energy-change (2. order) :-0.6980372E-09  (-0.7136694E-13)
 number of electron      10.9999995 magnetization 
 augmentation part        7.0143448 magnetization 

 Broyden mixing:
  rms(total) = 0.41922E-07    rms(broyden)= 0.41920E-07
  rms(prec ) = 0.12220E-06
  weight for this iteration     100.00

 eigenvalues of (default mixing * dielectric matrix)
  average eigenvalue GAMMA=   1.6330
  2.8262  2.8262  2.5201  2.5201  2.4855  0.6516  1.0399  1.0121  0.9968  0.9968
  0.9502  0.7709

 Free energy of the ion-electron system (eV)
  ---------------------------------------------------
  alpha Z        PSCENC =        60.81441780
  Ewald energy   TEWEN  =     -1098.28698219
  -Hartree energ DENC   =      -342.31779534
  -exchange      EXHF   =         0.00000000
  -V(xc)+E(xc)   XCENC  =        44.63938128
  PAW double counting   =      1310.79284890    -1418.58480251
  entropy T*S    EENTRO =        -0.00034958
  eigenvalues    EBANDS =        48.25272078
  atomic energy  EATOM  =      1390.97705399
  Solvation  Ediel_sol  =         0.00000000
  ---------------------------------------------------
  free energy    TOTEN  =        -3.71350686 eV

  energy without entropy =       -3.71315728  energy(sigma->0) =       -3.71333207


--------------------------------------------------------------------------------------------------------




--------------------------------------- Iteration      1(  18)  ---------------------------------------


    POTLOK:  cpu time      0.0098: real time      0.0130
    SETDIJ:  cpu time      0.0023: real time      0.0024
     EDDAV:  cpu time      0.1349: real time      0.1365
       DOS:  cpu time      0.0005: real time      0.0005
    CHARGE:  cpu time      0.0145: real time      0.0146
    MIXING:  cpu time      0.0007: real time      0.0007
    --------------------------------------------
      LOOP:  cpu time      0.1627: real time      0.1676

 eigenvalue-minimisations  :   656
 total energy-change (2. order) : 0.6250502E-09  (-0.4079681E-13)
 number of electron      10.9999995 magnetization 
 augmentation part        7.0143449 magnetization 

 Broyden mixing:
  rms(total) = 0.31465E-08    rms(broyden)= 0.31309E-08
  rms(prec ) = 0.84494E-08
  weight for this iteration     100.00

 eigenvalues of (default mixing * dielectric matrix)
  average eigenvalue GAMMA=   1.6059
  3.2270  2.7744  2.5368  2.5368  2.5270  0.6516  1.1551  1.0274  0.9916  0.9916
  0.9555  0.8760  0.6255

 Free energy of the ion-electron system (eV)
  ---------------------------------------------------
  alpha Z        PSCENC =        60.81441780
  Ewald energy   TEWEN  =     -1098.28698219
  -Hartree energ DENC   =      -342.31779586
  -exchange      EXHF   =         0.00000000
  -V(xc)+E(xc)   XCENC  =        44.63938129
  PAW double counting   =      1310.79285147    -1418.58480399
  entropy T*S    EENTRO =        -0.00034958
  eigenvalues    EBANDS =        48.25272020
  atomic energy  EATOM  =      1390.97705399
  Solvation  Ediel_sol  =         0.00000000
  ---------------------------------------------------
  free energy    TOTEN  =        -3.71350686 eV

  energy without entropy =       -3.71315728  energy(sigma->0) =       -3.71333207


--------------------------------------------------------------------------------------------------------




--------------------------------------- Iteration      1(  19)  ---------------------------------------


    POTLOK:  cpu time      0.0098: real time      0.0180
    SETDIJ:  cpu time      0.0024: real time      0.0024
     EDDAV:  cpu time      0.1314: real time      0.1330
       DOS:  cpu time      0.0005: real time      0.0005
    CHARGE:  cpu time      0.0146: real time      0.0147
    MIXING:  cpu time      0.0007: real time      0.0007
    --------------------------------------------
      LOOP:  cpu time      0.1593: real time      0.1694

 eigenvalue-minimisations  :   620
 total energy-change (2. order) : 0.2871730E-09  (-0.4397786E-13)
 number of electron      10.9999995 magnetization 
 augmentation part        7.0143449 magnetization 

 Broyden mixing:
  rms(total) = 0.76119E-08    rms(broyden)= 0.76106E-08
  rms(prec ) = 0.20822E-07
  weight for this iteration     100.00

 eigenvalues of (default mixing * dielectric matrix)
  average eigenvalue GAMMA=   1.7361
  4.5921  2.7668  2.5686  2.5304  2.5304  2.1395  0.6516  1.0258  1.0258  0.9886
  0.9886  0.9482  0.9482  0.6006

 Free energy of the ion-electron system (eV)
  ---------------------------------------------------
  alpha Z        PSCENC =        60.81441780
  Ewald energy   TEWEN  =     -1098.28698219
  -Hartree energ DENC   =      -342.31779578
  -exchange      EXHF   =         0.00000000
  -V(xc)+E(xc)   XCENC  =        44.63938129
  PAW double counting   =      1310.79285355    -1418.58480596
  entropy T*S    EENTRO =        -0.00034958
  eigenvalues    EBANDS =        48.25272001
  atomic energy  EATOM  =      1390.97705399
  Solvation  Ediel_sol  =         0.00000000
  ---------------------------------------------------
  free energy    TOTEN  =        -3.71350686 eV

  energy without entropy =       -3.71315728  energy(sigma->0) =       -3.71333207


--------------------------------------------------------------------------------------------------------




--------------------------------------- Iteration      1(  20)  ---------------------------------------


    POTLOK:  cpu time      0.0097: real time      0.0144
    SETDIJ:  cpu time      0.0024: real time      0.0024
     EDDAV:  cpu time      0.1391: real time      0.1408
       DOS:  cpu time      0.0005: real time      0.0005
    --------------------------------------------
      LOOP:  cpu time      0.1517: real time      0.1581

 eigenvalue-minimisations  :   632
 total energy-change (2. order) :-0.1182343E-10  (-0.1132697E-13)
 number of electron      10.9999995 magnetization 
 augmentation part        7.0143449 magnetization 

 Free energy of the ion-electron system (eV)
  ---------------------------------------------------
  alpha Z        PSCENC =        60.81441780
  Ewald energy   TEWEN  =     -1098.28698219
  -Hartree energ DENC   =      -342.31779594
  -exchange      EXHF   =         0.00000000
  -V(xc)+E(xc)   XCENC  =        44.63938130
  PAW double counting   =      1310.79285370    -1418.58480588
  entropy T*S    EENTRO =        -0.00034958
  eigenvalues    EBANDS =        48.25271994
  atomic energy  EATOM  =      1390.97705399
  Solvation  Ediel_sol  =         0.00000000
  ---------------------------------------------------
  free energy    TOTEN  =        -3.71350686 eV

  energy without entropy =       -3.71315728  energy(sigma->0) =       -3.71333207


--------------------------------------------------------------------------------------------------------




 average (electrostatic) potential at core
  the test charge radii are     0.9430
  (the norm of the test charge is              1.0000)
       1 -63.8756
 
 
 
 E-fermi :   7.2532     XC(G=0): -12.6210     alpha+bet :-13.1839

 Fermi energy:         7.2532273695

 k-point     1 :       0.0000    0.0000    0.0000
  band No.  band energies     occupation 
      1      -1.8506      2.00000
      2       4.3939      2.00000
      3       4.3939      2.00000
      4       4.3939      2.00000
      5       5.1988      2.00000
      6       5.1988      2.00000
      7      29.8133      0.00000
      8      32.3179      0.00000
      9      32.3179      0.00000
     10      32.3179      0.00000
     11      34.7966      0.00000
     12      34.7966      0.00000

 k-point     2 :       0.1000    0.0000    0.0000
  band No.  band energies     occupation 
      1      -1.4928      2.00000
      2       4.3227      2.00000
      3       4.4564      2.00000
      4       4.4564      2.00000
      5       5.1768      2.00000
      6       5.1768      2.00000
      7      27.2421      0.00000
      8      30.5130      0.00000
      9      31.4231      0.00000
     10      31.4231      0.00000
     11      36.1825      0.00000
     12      36.1825      0.00000

 k-point     3 :       0.2000    0.0000    0.0000
  band No.  band energies     occupation 
      1      -0.4643      2.00000
      2       4.1797      2.00000
      3       4.5505      2.00000
      4       4.5505      2.00000
      5       5.1974      2.00000
      6       5.1974      2.00000
      7      22.1260      0.00000
      8      30.0238      0.00000
      9      30.3219      0.00000
     10      30.3219      0.00000
     11      36.6315      0.00000
     12      36.7320      0.00000

 k-point     4 :       0.3000    0.0000    0.0000
  band No.  band energies     occupation 
      1       1.0091      2.00000
      2       4.2286      2.00000
      3       4.5090      2.00000
      4       4.5090      2.00000
      5       5.3990      2.00000
      6       5.3990      2.00000
      7      17.3241      0.00000
      8      29.2733      0.00000
      9      29.5958      0.00000
     10      29.5958      0.00000
     11      34.4392      0.00000
     12      34.4392      0.00000

 k-point     5 :       0.4000    0.0000    0.0000
  band No.  band energies     occupation 
      1       2.1327      2.00000
      2       4.4093      2.00000
      3       4.4093      2.00000
      4       5.1692      2.00000
      5       5.6444      2.00000
      6       5.6444      2.00000
      7      13.2232      0.00000
      8      28.5826      0.00000
      9      29.2427      0.00000
     10      29.2427      0.00000
     11      32.7856      0.00000
     12      32.7856      0.00000

 k-point     6 :       0.5000    0.0000    0.0000
  band No.  band energies     occupation 
      1       2.3898      2.00000
      2       4.3650      2.00000
      3       4.3650      2.00000
      4       5.7485      2.00000
      5       5.7485      2.00000
      6       6.4141      2.00000
      7      11.0316      0.00000
      8      28.3139      0.00000
      9      29.1553      0.00000
     10      29.1553      0.00000
     11      32.1836      0.00000
     12      32.1836      0.00000

 k-point     7 :       0.1000    0.1000    0.0000
  band No.  band energies     occupation 
      1      -1.3743      2.00000
      2       4.2579      2.00000
      3       4.5050      2.00000
      4       4.5050      2.00000
      5       5.0775      2.00000
      6       5.2489      2.00000
      7      28.5211      0.00000
      8      29.3034      0.00000
      9      29.3034      0.00000
     10      30.7393      0.00000
     11      36.6582      0.00000
     12      37.1033      0.00000

 k-point     8 :       0.2000    0.1000    0.0000
  band No.  band energies     occupation 
      1      -0.5700      2.00000
      2       4.1029      2.00000
      3       4.6063      2.00000
      4       4.6257      2.00000
      5       5.0171      2.00000
      6       5.3084      2.00000
      7      24.0641      0.00000
      8      27.7499      0.00000
      9      28.5982      0.00000
     10      31.8284      0.00000
     11      33.7236      0.00000
     12      37.1225      0.00000

 k-point     9 :       0.3000    0.1000    0.0000
  band No.  band energies     occupation 
      1       0.7766      2.00000
      2       4.0039      2.00000
      3       4.5070      2.00000
      4       4.6456      2.00000
      5       5.3008      2.00000
      6       5.4742      2.00000
      7      19.1125      0.00000
      8      26.8193      0.00000
      9      27.9058      0.00000
     10      30.1299      0.00000
     11      35.0723      0.00000
     12      36.8219      0.00000

 k-point    10 :       0.4000    0.1000    0.0000
  band No.  band energies     occupation 
      1       2.0946      2.00000
      2       4.2692      2.00000
      3       4.3944      2.00000
      4       4.5589      2.00000
      5       5.6828      2.00000
      6       5.9632      2.00000
      7      14.7094      0.00000
      8      26.5731      0.00000
      9      26.9719      0.00000
     10      28.4352      0.00000
     11      35.2883      0.00000
     12      36.0984      0.00000

 k-point    11 :       0.5000    0.1000    0.0000
  band No.  band energies     occupation 
      1       2.5564      2.00000
      2       4.2450      2.00000
      3       4.4828      2.00000
      4       4.9481      2.00000
      5       5.7556      2.00000
      6       7.2649      0.58337
      7      11.4620      0.00000
      8      25.6490      0.00000
      9      27.0890      0.00000
     10      28.1527      0.00000
     11      34.6427      0.00000
     12      35.0593      0.00000

 k-point    12 :      -0.4000    0.1000    0.0000
  band No.  band energies     occupation 
      1       2.4904      2.00000
      2       4.2823      2.00000
      3       4.4835      2.00000
      4       4.8567      2.00000
      5       5.6171      2.00000
      6       6.8584      2.00000
      7      12.3176      0.00000
      8      24.7630      0.00000
      9      28.4118      0.00000
     10      28.6918      0.00000
     11      33.7734      0.00000
     12      35.0294      0.00000

 k-point    13 :      -0.3000    0.1000    0.0000
  band No.  band energies     occupation 
      1       1.7344      2.00000
      2       4.1904      2.00000
      3       4.4100      2.00000
      4       4.5687      2.00000
      5       5.3226      2.00000
      6       5.9251      2.00000
      7      16.1055      0.00000
      8      24.5338      0.00000
      9      29.9049      0.00000
     10      30.5057      0.00000
     11      33.4710      0.00000
     12      34.8392      0.00000

 k-point    14 :      -0.2000    0.1000    0.0000
  band No.  band energies     occupation 
      1       0.2887      2.00000
      2       4.0559      2.00000
      3       4.5391      2.00000
      4       4.6593      2.00000
      5       5.0455      2.00000
      6       5.4965      2.00000
      7      20.7227      0.00000
      8      24.9422      0.00000
      9      31.6015      0.00000
     10      33.1699      0.00000
     11      33.7818      0.00000
     12      34.1275      0.00000

 k-point    15 :      -0.1000    0.1000    0.0000
  band No.  band energies     occupation 
      1      -0.9102      2.00000
      2       4.2001      2.00000
      3       4.5446      2.00000
      4       4.5535      2.00000
      5       5.0578      2.00000
      6       5.2693      2.00000
      7      25.4829      0.00000
      8      26.2630      0.00000
      9      31.9782      0.00000
     10      33.6475      0.00000
     11      34.6235      0.00000
     12      35.2962      0.00000

 k-point    16 :       0.2000    0.2000    0.0000
  band No.  band energies     occupation 
      1      -0.0200      2.00000
      2       3.9086      2.00000
      3       4.8146      2.00000
      4       4.8207      2.00000
      5       4.8207      2.00000
      6       5.3809      2.00000
      7      25.7974      0.00000
      8      25.7974      0.00000
      9      26.8126      0.00000
     10      27.8846      0.00000
     11      30.7789      0.00000
     12      41.7872      0.00000

 k-point    17 :       0.3000    0.2000    0.0000
  band No.  band energies     occupation 
      1       1.0736      2.00000
      2       3.7272      2.00000
      3       4.5713      2.00000
      4       4.9448      2.00000
      5       5.2830      2.00000
      6       5.5161      2.00000
      7      21.3901      0.00000
      8      24.5381      0.00000
      9      25.7448      0.00000
     10      27.4109      0.00000
     11      31.1409      0.00000
     12      41.2776      0.00000

 k-point    18 :       0.4000    0.2000    0.0000
  band No.  band energies     occupation 
      1       2.3085      2.00000
      2       3.6936      2.00000
      3       4.3590      2.00000
      4       4.8990      2.00000
      5       5.7129      2.00000
      6       6.2330      2.00000
      7      16.8066      0.00000
      8      23.4850      0.00000
      9      24.0599      0.00000
     10      27.1226      0.00000
     11      34.6837      0.00000
     12      40.1463      0.00000

 k-point    19 :       0.5000    0.2000    0.0000
  band No.  band energies     occupation 
      1       2.9293      2.00000
      2       3.8398      2.00000
      3       4.3759      2.00000
      4       4.8061      2.00000
      5       5.7748      2.00000
      6       8.0473      0.00000
      7      12.8909      0.00000
      8      21.6310      0.00000
      9      24.4385      0.00000
     10      27.1683      0.00000
     11      38.3971      0.00000
     12      38.4979      0.00000

 k-point    20 :      -0.4000    0.2000    0.0000
  band No.  band energies     occupation 
      1       3.0305      2.00000
      2       3.9380      2.00000
      3       4.4043      2.00000
      4       4.7542      2.00000
      5       5.6183      2.00000
      6       8.8120      0.00000
      7      11.9141      0.00000
      8      20.3958      0.00000
      9      25.6815      0.00000
     10      27.6944      0.00000
     11      37.4166      0.00000
     12      38.0740      0.00000

 k-point    21 :      -0.3000    0.2000    0.0000
  band No.  band energies     occupation 
      1       2.7061      2.00000
      2       4.0307      2.00000
      3       4.1388      2.00000
      4       4.7805      2.00000
      5       5.2991      2.00000
      6       7.0332      2.00000
      7      15.4416      0.00000
      8      19.8621      0.00000
      9      27.7026      0.00000
     10      28.8049      0.00000
     11      36.9003      0.00000
     12      36.9280      0.00000

 k-point    22 :      -0.2000    0.2000    0.0000
  band No.  band energies     occupation 
      1       1.5386      2.00000
      2       3.9133      2.00000
      3       4.3803      2.00000
      4       4.8704      2.00000
      5       4.9560      2.00000
      6       6.0449      2.00000
      7      19.5572      0.00000
      8      20.3398      0.00000
      9      30.3510      0.00000
     10      30.4970      0.00000
     11      35.0395      0.00000
[...]
      2       3.3576      2.00000
      3       4.9109      2.00000
      4       5.3306      2.00000
      5       5.7182      2.00000
      6       6.3254      2.00000
      7      19.3585      0.00000
      8      20.1563      0.00000
      9      22.1346      0.00000
     10      26.1812      0.00000
     11      29.7743      0.00000
     12      44.5961      0.00000

 k-point    25 :       0.5000    0.3000    0.0000
  band No.  band energies     occupation 
      1       2.9643      2.00000
      2       3.3886      2.00000
      3       4.6811      2.00000
      4       5.2398      2.00000
      5       5.8016      2.00000
      6       8.4652      0.00000
      7      15.2749      0.00000
      8      18.0940      0.00000
      9      22.2669      0.00000
     10      26.3823      0.00000
     11      33.7460      0.00000
     12      42.7313      0.00000

 k-point    26 :      -0.4000    0.3000    0.0000
  band No.  band energies     occupation 
      1       3.2910      2.00000
      2       3.5276      2.00000
      3       4.3992      2.00000
      4       5.1303      2.00000
      5       5.6622      2.00000
      6      11.0619      0.00000
      7      12.0777      0.00000
      8      16.7073      0.00000
      9      23.3300      0.00000
     10      26.7826      0.00000
     11      38.5717      0.00000
     12      41.3167      0.00000

 k-point    27 :      -0.3000    0.3000    0.0000
  band No.  band energies     occupation 
      1       3.3634      2.00000
      2       3.7797      2.00000
      3       4.0629      2.00000
      4       5.0007      2.00000
      5       5.4190      2.00000
      6       8.8837      0.00000
      7      14.6285      0.00000
      8      16.4944      0.00000
      9      25.2035      0.00000
     10      27.5874      0.00000
     11      39.8648      0.00000
     12      39.9620      0.00000

 k-point    28 :       0.4000    0.4000    0.0000
  band No.  band energies     occupation 
      1       2.5473      2.00000
      2       3.1620      2.00000
      3       5.6818      2.00000
      4       5.7011      2.00000
      5       5.7011      2.00000
      6       6.8154      2.00000
      7      17.3973      0.00000
      8      20.9989      0.00000
      9      20.9989      0.00000
     10      24.9653      0.00000
     11      27.5240      0.00000
     12      48.4951      0.00000

 k-point    29 :       0.5000    0.4000    0.0000
  band No.  band energies     occupation 
      1       2.7038      2.00000
      2       3.1337      2.00000
      3       5.4716      2.00000
      4       5.6130      2.00000
      5       5.8385      2.00000
      6       8.7311      0.00000
      7      15.4357      0.00000
      8      18.2414      0.00000
      9      20.8205      0.00000
     10      25.7031      0.00000
     11      29.1985      0.00000
     12      46.9087      0.00000

 k-point    30 :      -0.4000    0.4000    0.0000
  band No.  band energies     occupation 
      1       2.9862      2.00000
      2       3.2783      2.00000
      3       4.9328      2.00000
      4       5.4519      2.00000
      5       5.7621      2.00000
      6      10.8156      0.00000
      7      14.4977      0.00000
      8      14.9644      0.00000
      9      21.6400      0.00000
     10      26.1751      0.00000
     11      33.4439      0.00000
     12      44.6257      0.00000

 k-point    31 :       0.5000    0.5000    0.0000
  band No.  band energies     occupation 
      1       2.5946      2.00000
      2       3.0390      2.00000
      3       5.7340      2.00000
      4       5.8851      2.00000
      5       5.8851      2.00000
      6       8.8758      0.00000
      7      14.3554      0.00000
      8      20.3067      0.00000
      9      20.3067      0.00000
     10      24.7554      0.00000
     11      27.3278      0.00000
     12      49.0921      0.00000

 k-point    32 :       0.3000    0.2000    0.1000
  band No.  band energies     occupation 
      1       0.4004      2.00000
      2       3.9287      2.00000
      3       4.5488      2.00000
      4       4.8311      2.00000
      5       4.9977      2.00000
      6       5.5142      2.00000
      7      22.5907      0.00000
      8      23.2027      0.00000
      9      29.2300      0.00000
     10      30.6692      0.00000
     11      32.8845      0.00000
     12      37.5169      0.00000

 k-point    33 :       0.4000    0.2000    0.1000
  band No.  band energies     occupation 
      1       1.7561      2.00000
      2       3.8527      2.00000
      3       4.3365      2.00000
      4       4.8375      2.00000
      5       5.2785      2.00000
      6       6.0205      2.00000
      7      18.0669      0.00000
      8      22.3236      0.00000
      9      26.7406      0.00000
     10      30.7788      0.00000
     11      34.5336      0.00000
     12      36.6835      0.00000

 k-point    34 :       0.5000    0.2000    0.1000
  band No.  band energies     occupation 
      1       2.7177      2.00000
      2       4.0399      2.00000
      3       4.2643      2.00000
      4       4.7380      2.00000
      5       5.6012      2.00000
      6       7.1624      1.99998
      7      13.8815      0.00000
      8      22.3758      0.00000
      9      24.6753      0.00000
     10      30.2534      0.00000
     11      34.3405      0.00000
     12      39.0931      0.00000

 k-point    35 :      -0.4000    0.2000    0.1000
  band No.  band energies     occupation 
      1       2.9081      2.00000
      2       4.0041      2.00000
      3       4.5312      2.00000
      4       4.6790      2.00000
      5       5.7064      2.00000
      6       8.6724      0.00000
      7      11.3276      0.00000
      8      22.9541      0.00000
      9      23.4075      0.00000
     10      30.0281      0.00000
     11      34.0853      0.00000
     12      39.4060      0.00000

 k-point    36 :       0.4000    0.3000    0.1000
  band No.  band energies     occupation 
      1       2.0850      2.00000
      2       3.5694      2.00000
      3       4.4471      2.00000
      4       5.2703      2.00000
      5       5.3289      2.00000
      6       6.0472      2.00000
      7      20.2534      0.00000
      8      20.8226      0.00000
      9      23.1958      0.00000
     10      28.9504      0.00000
     11      31.0834      0.00000
     12      40.1291      0.00000

 k-point    37 :       0.5000    0.3000    0.1000
  band No.  band energies     occupation 
      1       2.9263      2.00000
      2       3.5692      2.00000
      3       4.2723      2.00000
      4       5.1697      2.00000
      5       5.6369      2.00000
      6       7.4599      0.00000
      7      16.1414      0.00000
      8      20.3942      0.00000
      9      20.9406      0.00000
     10      29.5122      0.00000
     11      34.1317      0.00000
     12      38.5254      0.00000

 k-point    38 :      -0.4000    0.3000    0.1000
  band No.  band energies     occupation 
      1       3.2896      2.00000
      2       3.6340      2.00000
      3       4.2361      2.00000
      4       5.0281      2.00000
      5       5.7170      2.00000
      6       9.8264      0.00000
      7      12.4781      0.00000
      8      19.1926      0.00000
      9      21.0543      0.00000
     10      29.8595      0.00000
     11      36.3612      0.00000
     12      39.5198      0.00000

 k-point    39 :      -0.3000    0.3000    0.1000
  band No.  band energies     occupation 
      1       3.3543      2.00000
      2       3.7353      2.00000
      3       4.0702      2.00000
      4       4.9967      2.00000
      5       5.5706      2.00000
      6       9.0925      0.00000
      7      13.5559      0.00000
      8      18.1807      0.00000
      9      22.3725      0.00000
     10      30.7235      0.00000
     11      35.5781      0.00000
     12      40.7539      0.00000

 k-point    40 :      -0.2000    0.3000    0.1000
  band No.  band energies     occupation 
      1       2.8501      2.00000
      2       3.7889      2.00000
      3       4.0511      2.00000
      4       5.0519      2.00000
      5       5.2920      2.00000
      6       7.1289      2.00000
      7      17.1606      0.00000
      8      18.2605      0.00000
      9      24.3068      0.00000
     10      32.1197      0.00000
     11      34.0122      0.00000
     12      37.7482      0.00000

 k-point    41 :       0.5000    0.4000    0.1000
  band No.  band energies     occupation 
      1       2.7894      2.00000
      2       3.2816      2.00000
      3       4.9165      2.00000
      4       5.5693      2.00000
      5       5.6993      2.00000
      6       7.8338      0.00000
      7      17.7287      0.00000
      8      18.6487      0.00000
      9      19.2935      0.00000
     10      27.9278      0.00000
     11      30.2010      0.00000
     12      42.8838      0.00000

 k-point    42 :      -0.4000    0.4000    0.1000
  band No.  band energies     occupation 
      1       3.0758      2.00000
      2       3.3793      2.00000
      3       4.6378      2.00000
      4       5.3703      2.00000
      5       5.8067      2.00000
      6      10.2560      0.00000
      7      15.0553      0.00000
      8      16.0360      0.00000
      9      19.4259      0.00000
     10      28.9104      0.00000
     11      33.7320      0.00000
     12      40.9808      0.00000

 k-point    43 :      -0.3000    0.4000    0.1000
  band No.  band energies     occupation 
      1       3.3917      2.00000
      2       3.5395      2.00000
      3       4.2436      2.00000
      4       5.1809      2.00000
      5       5.7021      2.00000
      6      11.7295      0.00000
      7      12.8498      0.00000
      8      15.5323      0.00000
      9      20.5832      0.00000
     10      29.6844      0.00000
     11      38.5660      0.00000
     12      38.7409      0.00000

 k-point    44 :      -0.4000    0.5000    0.1000
  band No.  band energies     occupation 
      1       2.8043      2.00000
      2       3.1729      2.00000
      3       5.2404      2.00000
      4       5.5758      2.00000
      5       5.8854      2.00000
      6       9.9506      0.00000
      7      14.5401      0.00000
      8      18.0617      0.00000
      9      18.7249      0.00000
     10      27.5964      0.00000
     11      29.9483      0.00000
     12      44.8368      0.00000

 k-point    45 :      -0.4000    0.4000    0.2000
  band No.  band energies     occupation 
      1       3.3107      2.00000
      2       3.6456      2.00000
      3       4.0631      2.00000
      4       5.2393      2.00000
      5       5.6960      2.00000
      6       9.5317      0.00000
      7      15.5371      0.00000
      8      17.0033      0.00000
      9      18.8142      0.00000
     10      32.8973      0.00000
     11      34.0485      0.00000
     12      37.6111      0.00000

 k-point    46 :      -0.3000    0.4000    0.2000
  band No.  band energies     occupation 
      1       3.4039      2.00000
      2       3.7526      2.00000
      3       3.9751      2.00000
      4       5.1454      2.00000
      5       5.7969      2.00000
      6      12.1190      0.00000
      7      12.7078      0.00000
      8      17.2470      0.00000
      9      17.4474      0.00000
     10      33.4513      0.00000
     11      35.1103      0.00000
     12      38.7006      0.00000

 k-point    47 :      -0.3000    0.5000    0.2000
  band No.  band energies     occupation 
      1       3.2273      2.00000
      2       3.5857      2.00000
      3       4.2936      2.00000
      4       5.2353      2.00000
      5       5.8858      2.00000
      6      12.1710      0.00000
      7      14.9425      0.00000
      8      15.1795      0.00000
      9      16.6101      0.00000
     10      32.5213      0.00000
     11      34.8788      0.00000
     12      38.3476      0.00000


--------------------------------------------------------------------------------------------------------


 soft charge-density along one line, spin component           1
         0         1         2         3         4         5         6         7         8         9
 total charge-density along one line
 
 pseudopotential strength for first ion, spin component:           1
 -3.035  -0.000  -0.000  -0.000  -0.000  -4.618   0.000   0.000
 -0.000  -3.035   0.000  -0.000  -0.000   0.000  -4.618  -0.000
 -0.000   0.000  -3.018   0.000  -0.000   0.000  -0.000  -4.630
 -0.000  -0.000   0.000  -3.035   0.000   0.000   0.000  -0.000
 -0.000  -0.000  -0.000   0.000  -3.018   0.000   0.000   0.000
 -4.618   0.000   0.000   0.000   0.000  10.216   0.000  -0.000
  0.000  -4.618  -0.000   0.000   0.000   0.000  10.216   0.000
  0.000  -0.000  -4.630  -0.000   0.000  -0.000   0.000  10.225
  0.000   0.000  -0.000  -4.618  -0.000   0.000   0.000   0.000
  0.000   0.000   0.000  -0.000  -4.630  -0.000  -0.000  -0.000
 -0.000  -0.000   0.000  -0.000   0.000  -0.000  -0.000   0.000
 -0.000  -0.000   0.000  -0.000   0.000  -0.000  -0.000   0.000
  0.000   0.000  -0.000   0.000  -0.000   0.000  -0.000   0.000
  0.000   0.000   0.000   0.000   0.000   0.000  -0.000  -0.000
  0.000   0.000  -0.000   0.000   0.000  -0.000   0.000   0.000
  0.000   0.000  -0.000  -0.000  -0.000   0.000  -0.000  -0.000
 -0.000   0.000   0.000   0.000  -0.000   0.000   0.000   0.000
  0.000  -0.000  -0.000   0.000   0.000  -0.000   0.000  -0.000
 total augmentation occupancy for first ion, spin component:           1
  1.907  -0.000  -0.000   0.000   0.000  -0.016   0.000   0.000   0.000   0.000   0.000   0.000   0.000   0.000   0.000   0.000
 -0.000   1.907   0.000   0.000   0.000   0.000  -0.016   0.000  -0.000   0.000   0.000   0.000   0.000   0.000   0.000   0.000
  0.000  -0.000   1.926   0.000   0.000  -0.000  -0.000  -0.034   0.000  -0.000  -0.000   0.000   0.000   0.000   0.000   0.000
  0.000   0.000   0.000   1.907  -0.000  -0.000  -0.000   0.000  -0.016  -0.000   0.000   0.000   0.000   0.000   0.000   0.000
 -0.000   0.000   0.000  -0.000   1.926  -0.000   0.000   0.000   0.000  -0.034  -0.000  -0.000   0.000   0.000   0.000   0.000
 -0.016   0.000   0.000   0.000  -0.000   0.017   0.000  -0.000   0.000  -0.000   0.000  -0.000   0.000   0.000   0.000   0.000
 -0.000  -0.016   0.000   0.000   0.000   0.000   0.017  -0.000   0.000   0.000   0.000  -0.000   0.000   0.000   0.000   0.000
  0.000   0.000  -0.034   0.000   0.000  -0.000   0.000   0.016   0.000   0.000   0.000   0.000   0.000   0.000   0.000   0.000
  0.000  -0.000   0.000  -0.016   0.000  -0.000   0.000  -0.000   0.017   0.000   0.000   0.000   0.000   0.000   0.000   0.000
 -0.000   0.000   0.000   0.000  -0.034  -0.000   0.000   0.000  -0.000   0.016   0.000  -0.000   0.000   0.000   0.000   0.000
 -0.000   0.000  -0.000   0.000  -0.000   0.000   0.000   0.000  -0.000   0.000   1.770  -0.170   0.000   0.000   0.000   0.000
 -0.000   0.000   0.000   0.000  -0.000  -0.000  -0.000   0.000   0.000  -0.000  -0.170   0.022   0.000   0.000   0.000   0.000
  0.000   0.000   0.000   0.000   0.000   0.000   0.000   0.000   0.000   0.000   0.000   0.000   0.231   0.000   0.000  -0.015
  0.000   0.000   0.000   0.000   0.000   0.000   0.000   0.000   0.000   0.000   0.000   0.000   0.000   0.231   0.000   0.000
  0.000   0.000   0.000   0.000   0.000   0.000   0.000   0.000   0.000   0.000   0.000   0.000   0.000  -0.000   0.231   0.000
  0.000   0.000   0.000   0.000   0.000   0.000   0.000   0.000   0.000   0.000   0.000   0.000  -0.015   0.000   0.000   0.001
  0.000   0.000   0.000   0.000   0.000   0.000   0.000   0.000   0.000   0.000   0.000   0.000  -0.000  -0.015   0.000  -0.000
  0.000   0.000   0.000   0.000   0.000   0.000   0.000   0.000   0.000   0.000   0.000   0.000  -0.000   0.000  -0.015  -0.000


------------------------ aborting loop because EDIFF is reached ----------------------------------------


    CHARGE:  cpu time      0.0154: real time      0.0155
    FORLOC:  cpu time      0.0004: real time      0.0004
    FORNL :  cpu time      0.0140: real time      0.0141
    FORCOR:  cpu time      0.0116: real time      0.0118
    FORHAR:  cpu time      0.0023: real time      0.0023
    MIXING:  cpu time      0.0008: real time      0.0008
    OFIELD:  cpu time      0.0000: real time      0.0000

 VOLUME and BASIS-vectors are now :
 -----------------------------------------------------------------------------
  energy-cutoff  :      520.00
  volume of cell :       12.03
      direct lattice vectors                 reciprocal lattice vectors
     0.000000000  1.818410337  1.818410337    -0.274965441  0.274965441  0.274965441
     1.818410337  0.000000000  1.818410337     0.274965441 -0.274965441  0.274965441
     1.818410337  1.818410337  0.000000000     0.274965441  0.274965441 -0.274965441

  length of vectors
     2.571620560  2.571620560  2.571620560     0.476254114  0.476254114  0.476254114


 FORCES acting on ions
    electron-ion (+dipol)            ewald-force                    non-local-force                 convergence-correction
 -----------------------------------------------------------------------------------------------
   -.125E-13 0.247E-14 0.251E-15   -.176E-14 0.198E-14 -.327E-14   0.000E+00 0.000E+00 0.162E-26   0.277E-14 -.741E-14 -.211E-13
 -----------------------------------------------------------------------------------------------
   -.125E-13 0.247E-14 0.251E-15   -.176E-14 0.198E-14 -.327E-14   0.000E+00 0.000E+00 0.162E-26   0.277E-14 -.741E-14 -.211E-13
 
 
 POSITION                                       TOTAL-FORCE (eV/Angst)
 -----------------------------------------------------------------------------------
      0.00000      0.00000      0.00000         0.000000     -0.000000      0.000000
 -----------------------------------------------------------------------------------
    total drift:                               -0.000000     -0.000000     -0.000000


--------------------------------------------------------------------------------------------------------



  FREE ENERGIE OF THE ION-ELECTRON SYSTEM (eV)
  ---------------------------------------------------
  free  energy   TOTEN  =        -3.71350686 eV

  energy  without entropy=       -3.71315728  energy(sigma->0) =       -3.71333207
 


--------------------------------------------------------------------------------------------------------


    POTLOK:  cpu time      0.0136: real time      0.0138


--------------------------------------------------------------------------------------------------------


 stress matrix after NEB project (eV)
      0.00000      0.00000      0.00000
      0.00000      0.00000      0.00000
      0.00000      0.00000      0.00000
  FORCES: max atom, RMS     0.000000    0.000000
  FORCE total and by dimension    0.000000    0.000000
  Stress total and by dimension    0.000000    0.000000
     LOOP+:  cpu time      4.4209: real time      4.6162
    4ORBIT:  cpu time      0.0000: real time      0.0000

 total amount of memory used by VASP MPI-rank0    34776. kBytes
=======================================================================

   base      :      30000. kBytes
   nonl-proj :       2252. kBytes
   fftplans  :        595. kBytes
   grid      :       1120. kBytes
   one-center:         15. kBytes
   wavefun   :        794. kBytes
 
  
  
 General timing and accounting informations for this job:
 ========================================================
  
                  Total CPU time used (sec):        5.798
                            User time (sec):        5.598
                          System time (sec):        0.200
                         Elapsed time (sec):        6.336
  
                   Maximum memory used (kb):      144476.
                   Average memory used (kb):          N/A
  
                          Minor page faults:        18847
                          Major page faults:          475
                 Voluntary context switches:         2858
