<?xml version="1.0" encoding="ISO-8859-1"?>
<modeling>
 <generator>
  <i name="program" type="string">vasp </i>
  <i name="version" type="string">6.4.2  </i>
  <i name="subversion" type="string">20Jul23 (build Oct 16 2024 22:45:58) complex                          parallel </i>
  <i name="platform" type="string">LinuxIFC </i>
  <i name="date" type="string">2025 02 15 </i>
  <i name="time" type="string">11:12:04 </i>
 </generator>
 <incar>
  <i type="string" name="SYSTEM">Cu FCC</i>
  <i type="string" name="PREC">Accurate</i>
  <i type="int" name="IBRION">    -1</i>
  <i name="EDIFF">      0.00000000</i>
  <i name="EDIFFG">     -0.00001000</i>
  <i type="int" name="NSW">     0</i>
  <i type="int" name="ISIF">     0</i>
  <i name="ENCUT">    520.00000000</i>
  <i type="int" name="ISMEAR">     0</i>
  <i name="SIGMA">      0.03000000</i>
  <i type="logical" name="LWAVE"> F  </i>
  <i type="string" name="GGA">PE</i>
 </incar>
 <primitive_cell>
  <structure name="primitive_cell" >
   <crystal>
    <varray name="basis" >
     <v>       0.00000000       1.81841034       1.81841034 </v>
     <v>       1.81841034       0.00000000       1.81841034 </v>
     <v>       1.81841034       1.81841034       0.00000000 </v>
    </varray>
    <i name="volume">     12.02556998 </i>
    <varray name="rec_basis" >
     <v>      -0.27496544       0.27496544       0.27496544 </v>
     <v>       0.27496544      -0.27496544       0.27496544 </v>
     <v>       0.27496544       0.27496544      -0.27496544 </v>
    </varray>
   </crystal>
   <varray name="positions" >
    <v>       0.00000000       0.00000000       0.00000000 </v>
   </varray>
  </structure>
  <varray name="primitive_index" >
   <v type="int" >        1 </v>
  </varray>
 </primitive_cell>
 <kpoints>
  <generation param="Gamma">
   <v type="int" name="divisions">      10       10       10 </v>
   <v name="usershift">      0.00000000       0.00000000       0.00000000 </v>
   <v name="genvec1">      0.10000000       0.00000000       0.00000000 </v>
   <v name="genvec2">      0.00000000       0.10000000       0.00000000 </v>
   <v name="genvec3">      0.00000000       0.00000000       0.10000000 </v>
   <v name="shift">      0.00000000       0.00000000       0.00000000 </v>
  </generation>
  <varray name="kpointlist" >
   <v>       0.00000000       0.00000000       0.00000000 </v>
   <v>       0.10000000       0.00000000       0.00000000 </v>
   <v>       0.20000000       0.00000000       0.00000000 </v>
   <v>       0.30000000       0.00000000       0.00000000 </v>
   <v>       0.40000000       0.00000000       0.00000000 </v>
   <v>       0.50000000       0.00000000       0.00000000 </v>
   <v>       0.10000000       0.10000000       0.00000000 </v>
   <v>       0.20000000       0.10000000       0.00000000 </v>
   <v>       0.30000000       0.10000000       0.00000000 </v>
   <v>       0.40000000       0.10000000       0.00000000 </v>
   <v>       0.50000000       0.10000000       0.00000000 </v>
   <v>      -0.40000000       0.10000000       0.00000000 </v>
   <v>      -0.30000000       0.10000000       0.00000000 </v>
   <v>      -0.20000000       0.10000000       0.00000000 </v>
   <v>      -0.10000000       0.10000000       0.00000000 </v>
   <v>       0.20000000       0.20000000       0.00000000 </v>
   <v>       0.30000000       0.20000000       0.00000000 </v>
   <v>       0.40000000       0.20000000       0.00000000 </v>
   <v>       0.50000000       0.20000000       0.00000000 </v>
   <v>      -0.40000000       0.20000000       0.00000000 </v>
   <v>      -0.30000000       0.20000000       0.00000000 </v>
   <v>      -0.20000000       0.20000000       0.00000000 </v>
   <v>       0.30000000       0.30000000       0.00000000 </v>
   <v>       0.40000000       0.30000000       0.00000000 </v>
   <v>       0.50000000       0.30000000       0.00000000 </v>
   <v>      -0.40000000       0.30000000       0.00000000 </v>
   <v>      -0.30000000       0.30000000       0.00000000 </v>
   <v>       0.40000000       0.40000000       0.00000000 </v>
   <v>       0.50000000       0.40000000       0.00000000 </v>
   <v>      -0.40000000       0.40000000       0.00000000 </v>
   <v>       0.50000000       0.50000000       0.00000000 </v>
   <v>       0.30000000       0.20000000       0.10000000 </v>
   <v>       0.40000000       0.20000000       0.10000000 </v>
   <v>       0.50000000       0.20000000       0.10000000 </v>
   <v>      -0.40000000       0.20000000       0.10000000 </v>
   <v>       0.40000000       0.30000000       0.10000000 </v>
   <v>       0.50000000       0.30000000       0.10000000 </v>
   <v>      -0.40000000       0.30000000       0.10000000 </v>
   <v>      -0.30000000       0.30000000       0.10000000 </v>
   <v>      -0.20000000       0.30000000       0.10000000 </v>
   <v>       0.50000000       0.40000000       0.10000000 </v>
   <v>      -0.40000000       0.40000000       0.10000000 </v>
   <v>      -0.30000000       0.40000000       0.10000000 </v>
   <v>      -0.40000000       0.50000000       0.10000000 </v>
   <v>      -0.40000000       0.40000000       0.20000000 </v>
   <v>      -0.30000000       0.40000000       0.20000000 </v>
   <v>      -0.30000000       0.50000000       0.20000000 </v>
  </varray>
  <varray name="weights" >
   <v>       0.00100000 </v>
   <v>       0.00800000 </v>
   <v>       0.00800000 </v>
   <v>       0.00800000 </v>
   <v>       0.00800000 </v>
   <v>       0.00400000 </v>
   <v>       0.00600000 </v>
   <v>       0.02400000 </v>
   <v>       0.02400000 </v>
   <v>       0.02400000 </v>
   <v>       0.02400000 </v>
   <v>       0.02400000 </v>
   <v>       0.02400000 </v>
   <v>       0.02400000 </v>
   <v>       0.01200000 </v>
   <v>       0.00600000 </v>
   <v>       0.02400000 </v>
   <v>       0.02400000 </v>
   <v>       0.02400000 </v>
   <v>       0.02400000 </v>
   <v>       0.02400000 </v>
   <v>       0.01200000 </v>
   <v>       0.00600000 </v>
   <v>       0.02400000 </v>
   <v>       0.02400000 </v>
   <v>       0.02400000 </v>
   <v>       0.01200000 </v>
   <v>       0.00600000 </v>
   <v>       0.02400000 </v>
   <v>       0.01200000 </v>
   <v>       0.00300000 </v>
   <v>       0.02400000 </v>
   <v>       0.04800000 </v>
   <v>       0.04800000 </v>
   <v>       0.02400000 </v>
   <v>       0.02400000 </v>
   <v>       0.04800000 </v>
   <v>       0.04800000 </v>
   <v>       0.04800000 </v>
   <v>       0.02400000 </v>
   <v>       0.02400000 </v>
   <v>       0.04800000 </v>
   <v>       0.02400000 </v>
   <v>       0.01200000 </v>
   <v>       0.02400000 </v>
   <v>       0.02400000 </v>
   <v>       0.01200000 </v>
  </varray>
 </kpoints>
 <parameters>
  <separator name="general" >
   <i type="string" name="SYSTEM">Cu FCC</i>
   <i type="logical" name="LCOMPAT"> F  </i>
  </separator>
  <separator name="electronic" >
   <i type="string" name="PREC">accura</i>
   <i name="ENMAX">    520.00000000</i>
   <i name="ENAUG">    586.98000000</i>
   <i name="EDIFF">      0.00000000</i>
   <i type="int" name="IALGO">    38</i>
   <i type="int" name="IWAVPR">    10</i>
   <i type="int" name="NBANDS">    12</i>
   <i type="int" name="NBANDSLOW">    -1</i>
   <i type="int" name="NBANDSHIGH">    -1</i>
   <i name="NELECT">     11.00000000</i>
   <i type="int" name="TURBO">     0</i>
   <i type="int" name="IRESTART">     0</i>
   <i type="int" name="NREBOOT">     0</i>
   <i type="int" name="NMIN">     0</i>
   <i name="EREF">      0.00000000</i>
   <separator name="electronic smearing" >
    <i type="int" name="ISMEAR">     0</i>
    <i name="SIGMA">      0.03000000</i>
    <i name="KSPACING">      0.50000000</i>
    <i type="logical" name="KGAMMA"> T  </i>
    <i type="logical" name="KBLOWUP"> T  </i>
   </separator>
   <separator name="electronic projectors" >
    <i type="logical" name="LREAL"> F  </i>
    <v name="ROPT">      0.00000000</v>
    <i type="int" name="LMAXPAW">  -100</i>
    <i type="int" name="LMAXMIX">     2</i>
    <i type="logical" name="NLSPLINE"> F  </i>
   </separator>
   <separator name="electronic startup" >
    <i type="int" name="ISTART">     0</i>
    <i type="int" name="ICHARG">     2</i>
    <i type="int" name="INIWAV">     1</i>
   </separator>
   <separator name="electronic spin" >
    <i type="int" name="ISPIN">     1</i>
    <i type="logical" name="LNONCOLLINEAR"> F  </i>
    <v name="MAGMOM">      1.00000000</v>
    <i name="NUPDOWN">     -1.00000000</i>
    <i type="logical" name="LSORBIT"> F  </i>
    <v name="SAXIS">      0.00000000      0.00000000      1.00000000</v>
    <i type="logical" name="LSPIRAL"> F  </i>
    <v name="QSPIRAL">      0.00000000      0.00000000      0.00000000</v>
    <i type="logical" name="LZEROZ"> F  </i>
   </separator>
   <separator name="electronic exchange-correlation" >
    <i type="logical" name="LASPH"> F  </i>
    <i type="logical" name="LMETAGGA"> F  </i>
   </separator>
   <separator name="electronic convergence" >
    <i type="int" name="NELM">    60</i>
    <i type="int" name="NELMDL">     0</i>
    <i type="int" name="NELMIN">     2</i>
    <i name="ENINI">    520.00000000</i>
    <separator name="electronic convergence detail" >
     <i type="logical" name="LDIAG"> T  </i>
     <i type="logical" name="LSUBROT"> F  </i>
     <i name="WEIMIN">      0.00000000</i>
     <i name="EBREAK">      0.00000000</i>
     <i name="DEPER">      0.30000000</i>
     <i type="int" name="NRMM">     4</i>
     <i name="TIME">      0.40000000</i>
    </separator>
   </separator>
   <separator name="electronic mixer" >
    <i name="AMIX">      0.40000000</i>
    <i name="BMIX">      1.00000000</i>
    <i name="AMIN">      0.10000000</i>
    <i name="AMIX_MAG">      1.60000000</i>
    <i name="BMIX_MAG">      1.00000000</i>
    <separator name="electronic mixer details" >
     <i type="int" name="IMIX">     4</i>
     <i type="logical" name="MIXFIRST"> F  </i>
     <i type="int" name="MAXMIX">   -45</i>
     <i name="WC">    100.00000000</i>
     <i type="int" name="INIMIX">     1</i>
     <i type="int" name="MIXPRE">     1</i>
     <i type="int" name="MREMOVE">     5</i>
    </separator>
   </separator>
   <separator name="electronic dipolcorrection" >
    <i type="logical" name="LDIPOL"> F  </i>
    <i type="logical" name="LMONO"> F  </i>
    <i type="int" name="IDIPOL">     0</i>
    <i name="EPSILON">      1.00000000</i>
    <v name="DIPOL">   -100.00000000   -100.00000000   -100.00000000</v>
    <i name="EFIELD">      0.00000000</i>
   </separator>
  </separator>
  <separator name="grids" >
   <i type="int" name="NGX">    20</i>
   <i type="int" name="NGY">    20</i>
   <i type="int" name="NGZ">    20</i>
   <i type="int" name="NGXF">    40</i>
   <i type="int" name="NGYF">    40</i>
   <i type="int" name="NGZF">    40</i>
   <i type="logical" name="ADDGRID"> F  </i>
  </separator>
  <separator name="ionic" >
   <i type="int" name="NSW">     0</i>
   <i type="int" name="IBRION">    -1</i>
   <i type="int" name="MDALGO">     0</i>
   <i type="int" name="ISIF">     0</i>
   <i name="PSTRESS">      0.00000000</i>
   <i name="EDIFFG">     -0.00001000</i>
   <i type="int" name="NFREE">     0</i>
   <i name="POTIM">      0.50000000</i>
   <i name="SMASS">     -3.00000000</i>
   <i name="SCALEE">      1.00000000</i>
  </separator>
  <separator name="ionic md" >
   <i name="TEBEG">      0.00010000</i>
   <i name="TEEND">      0.00010000</i>
   <i type="int" name="NBLOCK">     1</i>
   <i type="int" name="KBLOCK">     1</i>
   <i type="int" name="NPACO">   256</i>
   <i name="APACO">     10.00000000</i>
  </separator>
  <separator name="symmetry" >
   <i type="int" name="ISYM">     2</i>
   <i name="SYMPREC">      0.00001000</i>
  </separator>
  <separator name="dos" >
   <i type="int" name="LORBIT">     0</i>
   <v name="RWIGS">     -1.00000000</v>
   <i type="int" name="NEDOS">   301</i>
   <i name="EMIN">     10.00000000</i>
   <i name="EMAX">    -10.00000000</i>
   <i name="EFERMI">      0.00000000</i>
  </separator>
  <separator name="writing" >
   <i type="int" name="NWRITE">     2</i>
   <i type="logical" name="LWAVE"> F  </i>
   <i type="logical" name="LDOWNSAMPLE"> F  </i>
   <i type="logical" name="LCHARG"> T  </i>
   <i type="logical" name="LPARD"> F  </i>
   <i type="logical" name="LVTOT"> F  </i>
   <i type="logical" name="LVHAR"> F  </i>
   <i type="logical" name="LELF"> F  </i>
   <i type="logical" name="LOPTICS"> F  </i>
   <v name="STM">      0.00000000      0.00000000      0.00000000      0.00000000      0.00000000      0.00000000      0.00000000</v>
  </separator>
  <separator name="performance" >
   <i type="int" name="NPAR">     4</i>
   <i type="int" name="NSIM">     4</i>
   <i type="int" name="NBLK">    -1</i>
   <i type="logical" name="LPLANE"> T  </i>
   <i type="logical" name="LSCALAPACK"> T  </i>
   <i type="logical" name="LSCAAWARE"> F  </i>
   <i type="logical" name="LSCALU"> F  </i>
   <i type="logical" name="LASYNC"> F  </i>
   <i type="logical" name="LORBITALREAL"> F  </i>
  </separator>
  <separator name="miscellaneous" >
   <i type="int" name="IDIOT">     3</i>
   <i type="int" name="PHON_NSTRUCT">    -1</i>
   <i type="logical" name="LMUSIC"> F  </i>
   <v name="POMASS">     63.54600000</v>
   <v name="DARWINR">      0.00000000</v>
   <v name="DARWINV">      1.00000000</v>
   <i type="logical" name="LCORR"> T  </i>
  </separator>
  <i type="logical" name="GGA_COMPAT"> T  </i>
  <i type="logical" name="LBERRY"> F  </i>
  <i type="int" name="ICORELEVEL">     0</i>
  <i type="logical" name="LDAU"> F  </i>
  <i type="int" name="I_CONSTRAINED_M">     0</i>
  <separator name="electronic exchange-correlation" >
   <i type="string" name="GGA">PE</i>
   <i type="int" name="VOSKOWN">     0</i>
   <i type="logical" name="LHFCALC"> F  </i>
   <i type="string" name="PRECFOCK"></i>
   <i type="logical" name="LSYMGRAD"> F  </i>
   <i type="logical" name="LHFONE"> F  </i>
   <i type="logical" name="LRHFCALC"> F  </i>
   <i type="logical" name="LTHOMAS"> F  </i>
   <i type="logical" name="LMODELHF"> F  </i>
   <i type="logical" name="LFOCKACE"> F  </i>
   <i name="ENCUT4O">     -1.00000000</i>
   <i type="int" name="EXXOEP">     0</i>
   <i type="int" name="FOURORBIT">     0</i>
   <i name="AEXX">      0.00000000</i>
   <i name="HFALPHA">      0.00000000</i>
   <i name="MCALPHA">      0.00000000</i>
   <i name="ALDAX">      1.00000000</i>
   <i name="AGGAX">      1.00000000</i>
   <i name="ALDAC">      1.00000000</i>
   <i name="AGGAC">      1.00000000</i>
   <i type="int" name="NKREDX">     1</i>
   <i type="int" name="NKREDY">     1</i>
   <i type="int" name="NKREDZ">     1</i>
   <i type="logical" name="SHIFTRED"> F  </i>
   <i type="logical" name="ODDONLY"> F  </i>
   <i type="logical" name="EVENONLY"> F  </i>
   <i type="int" name="LMAXFOCK">     0</i>
   <i type="int" name="NMAXFOCKAE">     0</i>
   <i type="logical" name="LFOCKAEDFT"> F  </i>
   <i name="HFSCREEN">      0.00000000</i>
   <i name="HFSCREENC">      0.00000000</i>
   <i type="int" name="NBANDSGWLOW">     0</i>
  </separator>
  <separator name="vdW DFT" >
   <i type="logical" name="LUSE_VDW"> F  </i>
   <i type="int" name="IVDW_NL">     1</i>
   <i type="logical" name="LSPIN_VDW"> F  </i>
   <i name="Zab_VDW">     -0.84910000</i>
   <i name="PARAM1">      0.12340000</i>
   <i name="PARAM2">      1.00000000</i>
   <i name="PARAM3">      0.00000000</i>
  </separator>
  <separator name="model GW" >
   <i type="int" name="MODEL_GW">     0</i>
   <i name="MODEL_EPS0">      7.21534199</i>
   <i name="MODEL_ALPHA">      1.00000000</i>
  </separator>
  <separator name="linear response parameters" >
   <i type="logical" name="LEPSILON"> F  </i>
   <i type="logical" name="LRPA"> F  </i>
   <i type="logical" name="LNABLA"> F  </i>
   <i type="logical" name="LVEL"> F  </i>
   <i name="CSHIFT">      0.10000000</i>
   <i name="OMEGAMAX">     -1.00000000</i>
   <i name="DEG_THRESHOLD">      0.00200000</i>
   <i name="RTIME">     -0.10000000</i>
   <i name="WPLASMAI">      0.00000000</i>
   <v name="DFIELD">      0.00000000      0.00000000      0.00000000</v>
   <v name="WPLASMA">      0.00000000      0.00000000      0.00000000      0.00000000      0.00000000      0.00000000      0.00000000      0.00000000      0.00000000</v>
  </separator>
  <separator name="orbital magnetization" >
   <i type="logical" name="NUCIND"> F  </i>
   <v name="MAGPOS">      0.00000000      0.00000000      0.00000000</v>
   <i type="logical" name="LNICSALL"> T  </i>
   <i type="logical" name="ORBITALMAG"> F  </i>
   <i type="logical" name="LMAGBLOCH"> F  </i>
   <i type="logical" name="LCHIMAG"> F  </i>
   <i type="logical" name="LGAUGE"> T  </i>
   <i type="int" name="MAGATOM">     0</i>
   <v name="MAGDIPOL">      0.00000000      0.00000000      0.00000000</v>
   <v name="AVECCONST">      0.00000000      0.00000000      0.00000000</v>
  </separator>
  <separator name="response functions" >
   <i type="logical" name="LALL_IN_ONE"> F  </i>
   <i type="int" name="IALL_IN_ONE">    -1</i>
   <i type="int" name="NBANDS_WAVE">    -1</i>
   <i type="logical" name="LFINITE_TEMPERATURE"> F  </i>
   <i type="logical" name="LADDER"> F  </i>
   <i type="logical" name="LRPAFORCE"> F  </i>
   <i type="logical" name="LFXC"> F  </i>
   <i type="logical" name="LHARTREE"> T  </i>
   <i type="int" name="IBSE">     0</i>
   <v type="int" name="KPOINT">    -1     0     0     0</v>
   <i type="logical" name="LTCTC"> F  </i>
   <i type="logical" name="LTCTE"> F  </i>
   <i type="logical" name="LTETE"> F  </i>
   <i type="logical" name="LTRIPLET"> F  </i>
   <i type="logical" name="LFXCEPS"> F  </i>
   <i type="logical" name="LFXHEG"> F  </i>
   <i type="int" name="NATURALO">     2</i>
   <i type="logical" name="LHOLEGF"> F  </i>
   <i type="logical" name="L2ORDER"> F  </i>
   <i type="logical" name="LDMP1"> F  </i>
   <i type="logical" name="LMP2LT"> F  </i>
   <i type="logical" name="LSMP2LT"> F  </i>
   <i type="logical" name="LGWLF"> F  </i>
   <i name="ENCUTGW">     -1.60000002</i>
   <i name="ENCUTGWSOFT">     -1.60000002</i>
   <i name="ENCUTLF">     -1.00000000</i>
   <i type="logical" name="LESF_SPLINES"> F  </i>
   <i type="int" name="LMAXMP2">    -1</i>
   <i name="SCISSOR">      0.00000000</i>
   <i type="int" name="NOMEGA">     0</i>
   <i type="int" name="NOMEGAR">     0</i>
   <i type="int" name="NBANDSGW">    -1</i>
   <i type="int" name="NBANDSO">    -1</i>
   <i type="int" name="NBANDSV">    -1</i>
   <i type="int" name="NELMGW">     1</i>
   <i type="int" name="NELMHF">     1</i>
   <i type="int" name="DIM">     3</i>
   <i type="int" name="IESPILON">     4</i>
   <i type="int" name="ANTIRES">     0</i>
   <i name="OMEGAMAX">    -30.00000000</i>
   <i name="OMEGAMIN">    -30.00000000</i>
   <i name="OMEGATL">   -200.00000000</i>
   <i type="int" name="OMEGAGRID">     0</i>
   <i name="CSHIFT">     -0.10000000</i>
   <i type="logical" name="LSELFENERGY"> F  </i>
   <i type="logical" name="LSPECTRAL"> F  </i>
   <i type="logical" name="LSPECTRALGW"> F  </i>
   <i type="logical" name="LSINGLES"> F  </i>
   <i type="logical" name="LFERMIGW"> F  </i>
   <i type="logical" name="ODDONLYGW"> F  </i>
   <i type="logical" name="EVENONLYGW"> F  </i>
   <i type="int" name="NKREDLFX">     1</i>
   <i type="int" name="NKREDLFY">     1</i>
   <i type="int" name="NKREDLFZ">     1</i>
   <i type="int" name="MAXMEM">  2800</i>
   <i type="int" name="TELESCOPE">     0</i>
   <i type="int" name="NTAUPAR">    -1</i>
   <i type="int" name="NOMEGAPAR">    -1</i>
   <i name="DAMP_NEWTON">      0.80000001</i>
   <i name="LAMBDA">      1.00000000</i>
  </separator>
  <separator name="External order field" >
   <i name="OFIELD_KAPPA">      0.00000000</i>
   <v name="OFIELD_K">      0.00000000      0.00000000      0.00000000</v>
   <i name="OFIELD_Q6_NEAR">      0.00000000</i>
   <i name="OFIELD_Q6_FAR">      0.00000000</i>
   <i name="OFIELD_A">      0.00000000</i>
  </separator>
  <separator name="optional k-points parameters" >
   <i type="int" name="KPOINTS_OPT_MODE">     1</i>
   <i type="logical" name="LKPOINTS_OPT"> F  </i>
  </separator>
  <separator name="solvation model" >
   <i type="logical" name="LSOL"> F  </i>
  </separator>
 </parameters>
 <atominfo>
  <atoms>       1 </atoms>
  <types>       1 </types>
  <array name="atoms" >
   <dimension dim="1">ion</dimension>
   <field type="string">element</field>
   <field type="int">atomtype</field>
   <set>
    <rc><c>Cu</c><c>   1</c></rc>
   </set>
  </array>
  <array name="atomtypes" >
   <dimension dim="1">type</dimension>
   <field type="int">atomspertype</field>
   <field type="string">element</field>
   <field>mass</field>
   <field>valence</field>
   <field type="string">pseudopotential</field>
   <set>
    <rc><c>   1</c><c>Cu</c><c>     63.54600000</c><c>     11.00000000</c><c>  PAW_PBE Cu 22Jun2005                  </c></rc>
   </set>
  </array>
 </atominfo>
 <structure name="initialpos" >
  <crystal>
   <varray name="basis" >
    <v>       0.00000000       1.81841034       1.81841034 </v>
    <v>       1.81841034       0.00000000       1.81841034 </v>
    <v>       1.81841034       1.81841034       0.00000000 </v>
   </varray>
   <i name="volume">     12.02556998 </i>
   <varray name="rec_basis" >
    <v>      -0.27496544       0.27496544       0.27496544 </v>
    <v>       0.27496544      -0.27496544       0.27496544 </v>
    <v>       0.27496544       0.27496544      -0.27496544 </v>
   </varray>
  </crystal>
  <varray name="positions" >
   <v>       0.00000000       0.00000000       0.00000000 </v>
  </varray>
 </structure>
 <calculation>
  <scstep>
   <time name="dav">    0.21    0.22</time>
   <time name="total">    0.22    0.24</time>
   <energy>
    <i name="alphaZ">     60.81441780 </i>
    <i name="ewald">  -1098.28698219 </i>
    <i name="hartreedc">   -365.46790050 </i>
    <i name="XCdc">     45.73508064 </i>
    <i name="pawpsdc">   1228.20665988 </i>
    <i name="pawaedc">  -1334.04846713 </i>
    <i name="eentropy">     -0.00040265 </i>
    <i name="bandstr">    111.50532238 </i>
    <i name="atom">   1390.97705399 </i>
    <i name="e_fr_energy">     39.43478223 </i>
    <i name="e_wo_entrp">     39.43518488 </i>
    <i name="e_0_energy">     39.43498356 </i>
   </energy>
  </scstep>
  <scstep>
   <time name="dav">    0.19    0.20</time>
   <time name="total">    0.19    0.20</time>
   <energy>
    <i name="e_fr_energy">     -3.33434047 </i>
    <i name="e_wo_entrp">     -3.33388545 </i>
    <i name="e_0_energy">     -3.33411296 </i>
   </energy>
  </scstep>
  <scstep>
   <time name="dav">    0.21    0.22</time>
   <time name="total">    0.21    0.22</time>
   <energy>
    <i name="e_fr_energy">     -4.60247865 </i>
    <i name="e_wo_entrp">     -4.60210747 </i>
    <i name="e_0_energy">     -4.60229306 </i>
   </energy>
  </scstep>
  <scstep>
   <time name="dav">    0.21    0.22</time>
   <time name="total">    0.21    0.22</time>
   <energy>
    <i name="e_fr_energy">     -4.61179614 </i>
    <i name="e_wo_entrp">     -4.61142376 </i>
    <i name="e_0_energy">     -4.61160995 </i>
   </energy>
  </scstep>
  <scstep>
   <time name="dav">    0.21    0.22</time>
   <time name="total">    0.23    0.23</time>
   <energy>
    <i name="e_fr_energy">     -4.61188678 </i>
    <i name="e_wo_entrp">     -4.61151439 </i>
    <i name="e_0_energy">     -4.61170059 </i>
   </energy>
  </scstep>
  <scstep>
   <time name="dav">    0.21    0.21</time>
   <time name="total">    0.24    0.24</time>
   <energy>
    <i name="e_fr_energy">     -4.10492422 </i>
    <i name="e_wo_entrp">     -4.10445827 </i>
    <i name="e_0_energy">     -4.10469124 </i>
   </energy>
  </scstep>
  <scstep>
   <time name="dav">    0.21    0.21</time>
   <time name="total">    0.24    0.24</time>
   <energy>
    <i name="e_fr_energy">     -3.72548229 </i>
    <i name="e_wo_entrp">     -3.72512269 </i>
    <i name="e_0_energy">     -3.72530249 </i>
   </energy>
  </scstep>
  <scstep>
   <time name="dav">    0.21    0.22</time>
   <time name="total">    0.25    0.25</time>
   <energy>
    <i name="e_fr_energy">     -3.71521271 </i>
    <i name="e_wo_entrp">     -3.71485714 </i>
    <i name="e_0_energy">     -3.71503493 </i>
   </energy>
  </scstep>
  <scstep>
   <time name="dav">    0.22    0.22</time>
   <time name="total">    0.25    0.25</time>
   <energy>
    <i name="e_fr_energy">     -3.71350720 </i>
    <i name="e_wo_entrp">     -3.71315765 </i>
    <i name="e_0_energy">     -3.71333242 </i>
   </energy>
  </scstep>
  <scstep>
   <time name="dav">    0.25    0.25</time>
   <time name="total">    0.28    0.28</time>
   <energy>
    <i name="e_fr_energy">     -3.71350804 </i>
    <i name="e_wo_entrp">     -3.71315847 </i>
    <i name="e_0_energy">     -3.71333326 </i>
   </energy>
  </scstep>
  <scstep>
   <time name="dav">    0.22    0.22</time>
   <time name="total">    0.25    0.26</time>
   <energy>
    <i name="e_fr_energy">     -3.71350672 </i>
    <i name="e_wo_entrp">     -3.71315714 </i>
    <i name="e_0_energy">     -3.71333193 </i>
   </energy>
  </scstep>
  <scstep>
   <time name="dav">    0.21    0.22</time>
   <time name="total">    0.24    0.25</time>
   <energy>
    <i name="e_fr_energy">     -3.71350683 </i>
    <i name="e_wo_entrp">     -3.71315725 </i>
    <i name="e_0_energy">     -3.71333204 </i>
   </energy>
  </scstep>
  <scstep>
   <time name="dav">    0.24    0.24</time>
   <time name="total">    0.26    0.28</time>
   <energy>
    <i name="e_fr_energy">     -3.71350685 </i>
    <i name="e_wo_entrp">     -3.71315728 </i>
    <i name="e_0_energy">     -3.71333206 </i>
   </energy>
  </scstep>
  <scstep>
   <time name="dav">    0.16    0.16</time>
   <time name="total">    0.20    0.22</time>
   <energy>
    <i name="e_fr_energy">     -3.71350686 </i>
    <i name="e_wo_entrp">     -3.71315729 </i>
    <i name="e_0_energy">     -3.71333207 </i>
   </energy>
  </scstep>
  <scstep>
   <time name="dav">    0.14    0.14</time>
   <time name="total">    0.17    0.17</time>
   <energy>
    <i name="e_fr_energy">     -3.71350686 </i>
    <i name="e_wo_entrp">     -3.71315728 </i>
    <i name="e_0_energy">     -3.71333207 </i>
   </energy>
  </scstep>
  <scstep>
   <time name="dav">    0.14    0.14</time>
   <time name="total">    0.17    0.21</time>
   <energy>
    <i name="e_fr_energy">     -3.71350686 </i>
    <i name="e_wo_entrp">     -3.71315728 </i>
    <i name="e_0_energy">     -3.71333207 </i>
   </energy>
  </scstep>
  <scstep>
   <time name="dav">    0.14    0.14</time>
   <time name="total">    0.17    0.18</time>
   <energy>
    <i name="e_fr_energy">     -3.71350686 </i>
    <i name="e_wo_entrp">     -3.71315728 </i>
    <i name="e_0_energy">     -3.71333207 </i>
   </energy>
  </scstep>
  <scstep>
   <time name="dav">    0.13    0.14</time>
   <time name="total">    0.16    0.17</time>
   <energy>
    <i name="e_fr_energy">     -3.71350686 </i>
    <i name="e_wo_entrp">     -3.71315728 </i>
    <i name="e_0_energy">     -3.71333207 </i>
   </energy>
  </scstep>
  <scstep>
   <time name="dav">    0.13    0.13</time>
   <time name="total">    0.16    0.17</time>
   <energy>
    <i name="e_fr_energy">     -3.71350686 </i>
    <i name="e_wo_entrp">     -3.71315728 </i>
    <i name="e_0_energy">     -3.71333207 </i>
   </energy>
  </scstep>
  <scstep>
   <time name="dav">    0.14    0.14</time>
   <time name="total">    0.15    0.16</time>
   <energy>
    <i name="alphaZ">     60.81441780 </i>
    <i name="ewald">  -1098.28698219 </i>
    <i name="hartreedc">   -342.31779594 </i>
    <i name="XCdc">     44.63938130 </i>
    <i name="pawpsdc">   1310.79285370 </i>
    <i name="pawaedc">  -1418.58480588 </i>
    <i name="eentropy">     -0.00034958 </i>
    <i name="bandstr">     48.25271994 </i>
    <i name="atom">   1390.97705399 </i>
    <i name="e_fr_energy">     -3.71350686 </i>
    <i name="e_wo_entrp">     -3.71315728 </i>
    <i name="e_0_energy">     -3.71333207 </i>
   </energy>
  </scstep>
  <structure>
   <crystal>
    <varray name="basis" >
     <v>       0.00000000       1.81841034       1.81841034 </v>
     <v>       1.81841034       0.00000000       1.81841034 </v>
     <v>       1.81841034       1.81841034       0.00000000 </v>
    </varray>
    <i name="volume">     12.02556998 </i>
    <varray name="rec_basis" >
     <v>      -0.27496544       0.27496544       0.27496544 </v>
     <v>       0.27496544      -0.27496544       0.27496544 </v>
     <v>       0.27496544       0.27496544      -0.27496544 </v>
    </varray>
   </crystal>
   <varray name="positions" >
    <v>       0.00000000       0.00000000       0.00000000 </v>
   </varray>
  </structure>
  <varray name="forces" >
   <v>       0.00000000      -0.00000000       0.00000000 </v>
  </varray>
  <energy>
   <i name="e_fr_energy">     -3.71350686 </i>
   <i name="e_wo_entrp">     -3.71315728 </i>
   <i name="e_0_energy">     -3.71333207 </i>
  </energy>
  <time name="totalsc">    4.42    4.62</time>
  <eigenvalues>
   <array>
    <dimension dim="1">band</dimension>
    <dimension dim="2">kpoint</dimension>
    <dimension dim="3">spin</dimension>
    <field>eigene</field>
    <field>occ</field>
    <set>
     <set comment="spin 1">
      <set comment="kpoint 1">
       <r>   -1.8506    1.0000 </r>
       <r>    4.3939    1.0000 </r>
       <r>    4.3939    1.0000 </r>
       <r>    4.3939    1.0000 </r>
       <r>    5.1988    1.0000 </r>
       <r>    5.1988    1.0000 </r>
       <r>   29.8133    0.0000 </r>
       <r>   32.3179    0.0000 </r>
       <r>   32.3179    0.0000 </r>
       <r>   32.3179    0.0000 </r>
       <r>   34.7966    0.0000 </r>
       <r>   34.7966    0.0000 </r>
      </set>
      <set comment="kpoint 2">
       <r>   -1.4928    1.0000 </r>
       <r>    4.3227    1.0000 </r>
       <r>    4.4564    1.0000 </r>
       <r>    4.4564    1.0000 </r>
       <r>    5.1768    1.0000 </r>
       <r>    5.1768    1.0000 </r>
       <r>   27.2421    0.0000 </r>
       <r>   30.5130    0.0000 </r>
       <r>   31.4231    0.0000 </r>
       <r>   31.4231    0.0000 </r>
       <r>   36.1825    0.0000 </r>
       <r>   36.1825    0.0000 </r>
      </set>
      <set comment="kpoint 3">
       <r>   -0.4643    1.0000 </r>
       <r>    4.1797    1.0000 </r>
       <r>    4.5505    1.0000 </r>
       <r>    4.5505    1.0000 </r>
       <r>    5.1974    1.0000 </r>
       <r>    5.1974    1.0000 </r>
       <r>   22.1260    0.0000 </r>
       <r>   30.0238    0.0000 </r>
       <r>   30.3219    0.0000 </r>
       <r>   30.3219    0.0000 </r>
       <r>   36.6315    0.0000 </r>
       <r>   36.7320    0.0000 </r>
      </set>
      <set comment="kpoint 4">
       <r>    1.0091    1.0000 </r>
       <r>    4.2286    1.0000 </r>
       <r>    4.5090    1.0000 </r>
       <r>    4.5090    1.0000 </r>
       <r>    5.3990    1.0000 </r>
       <r>    5.3990    1.0000 </r>
       <r>   17.3241    0.0000 </r>
       <r>   29.2733    0.0000 </r>
       <r>   29.5958    0.0000 </r>
       <r>   29.5958    0.0000 </r>
       <r>   34.4392    0.0000 </r>
       <r>   34.4392    0.0000 </r>
      </set>
      <set comment="kpoint 5">
       <r>    2.1327    1.0000 </r>
       <r>    4.4093    1.0000 </r>
       <r>    4.4093    1.0000 </r>
       <r>    5.1692    1.0000 </r>
       <r>    5.6444    1.0000 </r>
       <r>    5.6444    1.0000 </r>
       <r>   13.2232    0.0000 </r>
       <r>   28.5826    0.0000 </r>
       <r>   29.2427    0.0000 </r>
       <r>   29.2427    0.0000 </r>
       <r>   32.7856    0.0000 </r>
       <r>   32.7856    0.0000 </r>
      </set>
      <set comment="kpoint 6">
       <r>    2.3898    1.0000 </r>
       <r>    4.3650    1.0000 </r>
       <r>    4.3650    1.0000 </r>
       <r>    5.7485    1.0000 </r>
       <r>    5.7485    1.0000 </r>
       <r>    6.4141    1.0000 </r>
       <r>   11.0316    0.0000 </r>
       <r>   28.3139    0.0000 </r>
       <r>   29.1553    0.0000 </r>
       <r>   29.1553    0.0000 </r>
       <r>   32.1836    0.0000 </r>
       <r>   32.1836    0.0000 </r>
      </set>
      <set comment="kpoint 7">
       <r>   -1.3743    1.0000 </r>
       <r>    4.2579    1.0000 </r>
       <r>    4.5050    1.0000 </r>
       <r>    4.5050    1.0000 </r>
       <r>    5.0775    1.0000 </r>
       <r>    5.2489    1.0000 </r>
       <r>   28.5211    0.0000 </r>
       <r>   29.3034    0.0000 </r>
       <r>   29.3034    0.0000 </r>
       <r>   30.7393    0.0000 </r>
       <r>   36.6582    0.0000 </r>
       <r>   37.1033    0.0000 </r>
      </set>
      <set comment="kpoint 8">
       <r>   -0.5700    1.0000 </r>
       <r>    4.1029    1.0000 </r>
       <r>    4.6063    1.0000 </r>
       <r>    4.6257    1.0000 </r>
       <r>    5.0171    1.0000 </r>
       <r>    5.3084    1.0000 </r>
       <r>   24.0641    0.0000 </r>
       <r>   27.7499    0.0000 </r>
       <r>   28.5982    0.0000 </r>
       <r>   31.8284    0.0000 </r>
       <r>   33.7236    0.0000 </r>
       <r>   37.1225    0.0000 </r>
      </set>
      <set comment="kpoint 9">
       <r>    0.7766    1.0000 </r>
       <r>    4.0039    1.0000 </r>
       <r>    4.5070    1.0000 </r>
       <r>    4.6456    1.0000 </r>
       <r>    5.3008    1.0000 </r>
       <r>    5.4742    1.0000 </r>
       <r>   19.1125    0.0000 </r>
       <r>   26.8193    0.0000 </r>
       <r>   27.9058    0.0000 </r>
       <r>   30.1299    0.0000 </r>
       <r>   35.0723    0.0000 </r>
       <r>   36.8219    0.0000 </r>
      </set>
      <set comment="kpoint 10">
       <r>    2.0946    1.0000 </r>
       <r>    4.2692    1.0000 </r>
       <r>    4.3944    1.0000 </r>
       <r>    4.5589    1.0000 </r>
       <r>    5.6828    1.0000 </r>
       <r>    5.9632    1.0000 </r>
       <r>   14.7094    0.0000 </r>
       <r>   26.5731    0.0000 </r>
       <r>   26.9719    0.0000 </r>
       <r>   28.4352    0.0000 </r>
       <r>   35.2883    0.0000 </r>
       <r>   36.0984    0.0000 </r>
      </set>
      <set comment="kpoint 11">
       <r>    2.5564    1.0000 </r>
       <r>    4.2450    1.0000 </r>
       <r>    4.4828    1.0000 </r>
       <r>    4.9481    1.0000 </r>
       <r>    5.7556    1.0000 </r>
       <r>    7.2649    0.2917 </r>
       <r>   11.4620    0.0000 </r>
       <r>   25.6490    0.0000 </r>
       <r>   27.0890    0.0000 </r>
       <r>   28.1527    0.0000 </r>
       <r>   34.6427    0.0000 </r>
       <r>   35.0593    0.0000 </r>
      </set>
      <set comment="kpoint 12">
       <r>    2.4904    1.0000 </r>
       <r>    4.2823    1.0000 </r>
       <r>    4.4835    1.0000 </r>
       <r>    4.8567    1.0000 </r>
       <r>    5.6171    1.0000 </r>
       <r>    6.8584    1.0000 </r>
       <r>   12.3176    0.0000 </r>
       <r>   24.7630    0.0000 </r>
       <r>   28.4118    0.0000 </r>
       <r>   28.6918    0.0000 </r>
       <r>   33.7734    0.0000 </r>
       <r>   35.0294    0.0000 </r>
      </set>
      <set comment="kpoint 13">
       <r>    1.7344    1.0000 </r>
       <r>    4.1904    1.0000 </r>
       <r>    4.4100    1.0000 </r>
       <r>    4.5687    1.0000 </r>
       <r>    5.3226    1.0000 </r>
       <r>    5.9251    1.0000 </r>
       <r>   16.1055    0.0000 </r>
       <r>   24.5338    0.0000 </r>
       <r>   29.9049    0.0000 </r>
       <r>   30.5057    0.0000 </r>
       <r>   33.4710    0.0000 </r>
       <r>   34.8392    0.0000 </r>
      </set>
      <set comment="kpoint 14">
       <r>    0.2887    1.0000 </r>
       <r>    4.0559    1.0000 </r>
       <r>    4.5391    1.0000 </r>
       <r>    4.6593    1.0000 </r>
       <r>    5.0455    1.0000 </r>
       <r>    5.4965    1.0000 </r>
       <r>   20.7227    0.0000 </r>
       <r>   24.9422    0.0000 </r>
       <r>   31.6015    0.0000 </r>
       <r>   33.1699    0.0000 </r>
       <r>   33.7818    0.0000 </r>
       <r>   34.1275    0.0000 </r>
      </set>
      <set comment="kpoint 15">
       <r>   -0.9102    1.0000 </r>
       <r>    4.2001    1.0000 </r>
       <r>    4.5446    1.0000 </r>
       <r>    4.5535    1.0000 </r>
       <r>    5.0578    1.0000 </r>
       <r>    5.2693    1.0000 </r>
       <r>   25.4829    0.0000 </r>
       <r>   26.2630    0.0000 </r>
       <r>   31.9782    0.0000 </r>
       <r>   33.6475    0.0000 </r>
       <r>   34.6235    0.0000 </r>
       <r>   35.2962    0.0000 </r>
      </set>
      <set comment="kpoint 16">
       <r>   -0.0200    1.0000 </r>
       <r>    3.9086    1.0000 </r>
       <r>    4.8146    1.0000 </r>
       <r>    4.8207    1.0000 </r>
       <r>    4.8207    1.0000 </r>
       <r>    5.3809    1.0000 </r>
       <r>   25.7974    0.0000 </r>
       <r>   25.7974    0.0000 </r>
       <r>   26.8126    0.0000 </r>
       <r>   27.8846    0.0000 </r>
       <r>   30.7789    0.0000 </r>
       <r>   41.7872    0.0000 </r>
      </set>
      <set comment="kpoint 17">
       <r>    1.0736    1.0000 </r>
       <r>    3.7272    1.0000 </r>
       <r>    4.5713    1.0000 </r>
       <r>    4.9448    1.0000 </r>
       <r>    5.2830    1.0000 </r>
       <r>    5.5161    1.0000 </r>
       <r>   21.3901    0.0000 </r>
       <r>   24.5381    0.0000 </r>
       <r>   25.7448    0.0000 </r>
       <r>   27.4109    0.0000 </r>
       <r>   31.1409    0.0000 </r>
       <r>   41.2776    0.0000 </r>
      </set>
      <set comment="kpoint 18">
       <r>    2.3085    1.0000 </r>
       <r>    3.6936    1.0000 </r>
       <r>    4.3590    1.0000 </r>
       <r>    4.8990    1.0000 </r>
       <r>    5.7129    1.0000 </r>
       <r>    6.2330    1.0000 </r>
       <r>   16.8066    0.0000 </r>
       <r>   23.4850    0.0000 </r>
       <r>   24.0599    0.0000 </r>
       <r>   27.1226    0.0000 </r>
       <r>   34.6837    0.0000 </r>
       <r>   40.1463    0.0000 </r>
      </set>
      <set comment="kpoint 19">
       <r>    2.9293    1.0000 </r>
       <r>    3.8398    1.0000 </r>
       <r>    4.3759    1.0000 </r>
       <r>    4.8061    1.0000 </r>
       <r>    5.7748    1.0000 </r>
       <r>    8.0473    0.0000 </r>
       <r>   12.8909    0.0000 </r>
       <r>   21.6310    0.0000 </r>
       <r>   24.4385    0.0000 </r>
       <r>   27.1683    0.0000 </r>
       <r>   38.3971    0.0000 </r>
       <r>   38.4979    0.0000 </r>
      </set>
      <set comment="kpoint 20">
       <r>    3.0305    1.0000 </r>
       <r>    3.9380    1.0000 </r>
       <r>    4.4043    1.0000 </r>
       <r>    4.7542    1.0000 </r>
       <r>    5.6183    1.0000 </r>
       <r>    8.8120    0.0000 </r>
       <r>   11.9141    0.0000 </r>
       <r>   20.3958    0.0000 </r>
       <r>   25.6815    0.0000 </r>
       <r>   27.6944    0.0000 </r>
       <r>   37.4166    0.0000 </r>
       <r>   38.0740    0.0000 </r>
      </set>
      <set comment="kpoint 21">
       <r>    2.7061    1.0000 </r>
       <r>    4.0307    1.0000 </r>
       <r>    4.1388    1.0000 </r>
       <r>    4.7805    1.0000 </r>
       <r>    5.2991    1.0000 </r>
       <r>    7.0332    1.0000 </r>
       <r>   15.4416    0.0000 </r>
       <r>   19.8621    0.0000 </r>
       <r>   27.7026    0.0000 </r>
       <r>   28.8049    0.0000 </r>
       <r>   36.9003    0.0000 </r>
       <r>   36.9280    0.0000 </r>
      </set>
      <set comment="kpoint 22">
       <r>    1.5386    1.0000 </r>
       <r>    3.9133    1.0000 </r>
       <r>    4.3803    1.0000 </r>
       <r>    4.8704    1.0000 </r>
       <r>    4.9560    1.0000 </r>
       <r>    6.0449    1.0000 </r>
       <r>   19.5572    0.0000 </r>
       <r>   20.3398    0.0000 </r>
       <r>   30.3510    0.0000 </r>
       <r>   30.4970    0.0000 </r>
       <r>   35.0395    0.0000 </r>
       <r>   36.9204    0.0000 </r>
      </set>
      <set comment="kpoint 23">
       <r>    1.7541    1.0000 </r>
       <r>    3.4902    1.0000 </r>
       <r>    4.9356    1.0000 </r>
       <r>    5.2715    1.0000 </r>
       <r>    5.2715    1.0000 </r>
       <r>    5.5462    1.0000 </r>
       <r>   22.7258    0.0000 </r>
       <r>   22.9286    0.0000 </r>
       <r>   22.9286    0.0000 </r>
       <r>   25.6263    0.0000 </r>
       <r>   28.2965    0.0000 </r>
       <r>   46.0323    0.0000 </r>
      </set>
      <set comment="kpoint 24">
       <r>    2.4724    1.0000 </r>
       <r>    3.3576    1.0000 </r>
       <r>    4.9109    1.0000 </r>
       <r>    5.3306    1.0000 </r>
       <r>    5.7182    1.0000 </r>
       <r>    6.3254    1.0000 </r>
       <r>   19.3585    0.0000 </r>
       <r>   20.1563    0.0000 </r>
       <r>   22.1346    0.0000 </r>
       <r>   26.1812    0.0000 </r>
       <r>   29.7743    0.0000 </r>
       <r>   44.5961    0.0000 </r>
      </set>
      <set comment="kpoint 25">
       <r>    2.9643    1.0000 </r>
       <r>    3.3886    1.0000 </r>
       <r>    4.6811    1.0000 </r>
       <r>    5.2398    1.0000 </r>
       <r>    5.8016    1.0000 </r>
       <r>    8.4652    0.0000 </r>
       <r>   15.2749    0.0000 </r>
       <r>   18.0940    0.0000 </r>
       <r>   22.2669    0.0000 </r>
       <r>   26.3823    0.0000 </r>
       <r>   33.7460    0.0000 </r>
       <r>   42.7313    0.0000 </r>
      </set>
      <set comment="kpoint 26">
       <r>    3.2910    1.0000 </r>
       <r>    3.5276    1.0000 </r>
       <r>    4.3992    1.0000 </r>
       <r>    5.1303    1.0000 </r>
       <r>    5.6622    1.0000 </r>
       <r>   11.0619    0.0000 </r>
       <r>   12.0777    0.0000 </r>
       <r>   16.7073    0.0000 </r>
       <r>   23.3300    0.0000 </r>
       <r>   26.7826    0.0000 </r>
       <r>   38.5717    0.0000 </r>
       <r>   41.3167    0.0000 </r>
      </set>
      <set comment="kpoint 27">
       <r>    3.3634    1.0000 </r>
       <r>    3.7797    1.0000 </r>
       <r>    4.0629    1.0000 </r>
       <r>    5.0007    1.0000 </r>
       <r>    5.4190    1.0000 </r>
       <r>    8.8837    0.0000 </r>
       <r>   14.6285    0.0000 </r>
       <r>   16.4944    0.0000 </r>
       <r>   25.2035    0.0000 </r>
       <r>   27.5874    0.0000 </r>
       <r>   39.8648    0.0000 </r>
       <r>   39.9620    0.0000 </r>
      </set>
      <set comment="kpoint 28">
       <r>    2.5473    1.0000 </r>
       <r>    3.1620    1.0000 </r>
       <r>    5.6818    1.0000 </r>
       <r>    5.7011    1.0000 </r>
       <r>    5.7011    1.0000 </r>
       <r>    6.8154    1.0000 </r>
       <r>   17.3973    0.0000 </r>
       <r>   20.9989    0.0000 </r>
       <r>   20.9989    0.0000 </r>
       <r>   24.9653    0.0000 </r>
       <r>   27.5240    0.0000 </r>
       <r>   48.4951    0.0000 </r>
      </set>
      <set comment="kpoint 29">
       <r>    2.7038    1.0000 </r>
       <r>    3.1337    1.0000 </r>
       <r>    5.4716    1.0000 </r>
       <r>    5.6130    1.0000 </r>
       <r>    5.8385    1.0000 </r>
       <r>    8.7311    0.0000 </r>
       <r>   15.4357    0.0000 </r>
       <r>   18.2414    0.0000 </r>
       <r>   20.8205    0.0000 </r>
       <r>   25.7031    0.0000 </r>
       <r>   29.1985    0.0000 </r>
       <r>   46.9087    0.0000 </r>
      </set>
      <set comment="kpoint 30">
       <r>    2.9862    1.0000 </r>
       <r>    3.2783    1.0000 </r>
       <r>    4.9328    1.0000 </r>
       <r>    5.4519    1.0000 </r>
       <r>    5.7621    1.0000 </r>
       <r>   10.8156    0.0000 </r>
       <r>   14.4977    0.0000 </r>
       <r>   14.9644    0.0000 </r>
       <r>   21.6400    0.0000 </r>
       <r>   26.1751    0.0000 </r>
       <r>   33.4439    0.0000 </r>
       <r>   44.6257    0.0000 </r>
      </set>
      <set comment="kpoint 31">
       <r>    2.5946    1.0000 </r>
       <r>    3.0390    1.0000 </r>
       <r>    5.7340    1.0000 </r>
       <r>    5.8851    1.0000 </r>
       <r>    5.8851    1.0000 </r>
       <r>    8.8758    0.0000 </r>
       <r>   14.3554    0.0000 </r>
       <r>   20.3067    0.0000 </r>
       <r>   20.3067    0.0000 </r>
       <r>   24.7554    0.0000 </r>
       <r>   27.3278    0.0000 </r>
       <r>   49.0921    0.0000 </r>
      </set>
      <set comment="kpoint 32">
       <r>    0.4004    1.0000 </r>
       <r>    3.9287    1.0000 </r>
       <r>    4.5488    1.0000 </r>
       <r>    4.8311    1.0000 </r>
       <r>    4.9977    1.0000 </r>
       <r>    5.5142    1.0000 </r>
       <r>   22.5907    0.0000 </r>
       <r>   23.2027    0.0000 </r>
       <r>   29.2300    0.0000 </r>
       <r>   30.6692    0.0000 </r>
       <r>   32.8845    0.0000 </r>
       <r>   37.5169    0.0000 </r>
      </set>
      <set comment="kpoint 33">
       <r>    1.7561    1.0000 </r>
       <r>    3.8527    1.0000 </r>
       <r>    4.3365    1.0000 </r>
       <r>    4.8375    1.0000 </r>
       <r>    5.2785    1.0000 </r>
       <r>    6.0205    1.0000 </r>
       <r>   18.0669    0.0000 </r>
       <r>   22.3236    0.0000 </r>
       <r>   26.7406    0.0000 </r>
       <r>   30.7788    0.0000 </r>
       <r>   34.5336    0.0000 </r>
       <r>   36.6835    0.0000 </r>
      </set>
      <set comment="kpoint 34">
       <r>    2.7177    1.0000 </r>
       <r>    4.0399    1.0000 </r>
       <r>    4.2643    1.0000 </r>
       <r>    4.7380    1.0000 </r>
       <r>    5.6012    1.0000 </r>
       <r>    7.1624    1.0000 </r>
       <r>   13.8815    0.0000 </r>
       <r>   22.3758    0.0000 </r>
       <r>   24.6753    0.0000 </r>
       <r>   30.2534    0.0000 </r>
       <r>   34.3405    0.0000 </r>
       <r>   39.0931    0.0000 </r>
      </set>
      <set comment="kpoint 35">
       <r>    2.9081    1.0000 </r>
       <r>    4.0041    1.0000 </r>
       <r>    4.5312    1.0000 </r>
       <r>    4.6790    1.0000 </r>
       <r>    5.7064    1.0000 </r>
       <r>    8.6724    0.0000 </r>
       <r>   11.3276    0.0000 </r>
       <r>   22.9541    0.0000 </r>
       <r>   23.4075    0.0000 </r>
       <r>   30.0281    0.0000 </r>
       <r>   34.0853    0.0000 </r>
       <r>   39.4060    0.0000 </r>
      </set>
      <set comment="kpoint 36">
       <r>    2.0850    1.0000 </r>
       <r>    3.5694    1.0000 </r>
       <r>    4.4471    1.0000 </r>
       <r>    5.2703    1.0000 </r>
       <r>    5.3289    1.0000 </r>
       <r>    6.0472    1.0000 </r>
       <r>   20.2534    0.0000 </r>
       <r>   20.8226    0.0000 </r>
       <r>   23.1958    0.0000 </r>
       <r>   28.9504    0.0000 </r>
       <r>   31.0834    0.0000 </r>
       <r>   40.1291    0.0000 </r>
      </set>
      <set comment="kpoint 37">
       <r>    2.9263    1.0000 </r>
       <r>    3.5692    1.0000 </r>
       <r>    4.2723    1.0000 </r>
       <r>    5.1697    1.0000 </r>
       <r>    5.6369    1.0000 </r>
       <r>    7.4599    0.0000 </r>
       <r>   16.1414    0.0000 </r>
       <r>   20.3942    0.0000 </r>
       <r>   20.9406    0.0000 </r>
       <r>   29.5122    0.0000 </r>
       <r>   34.1317    0.0000 </r>
       <r>   38.5254    0.0000 </r>
      </set>
      <set comment="kpoint 38">
       <r>    3.2896    1.0000 </r>
       <r>    3.6340    1.0000 </r>
       <r>    4.2361    1.0000 </r>
       <r>    5.0281    1.0000 </r>
       <r>    5.7170    1.0000 </r>
       <r>    9.8264    0.0000 </r>
       <r>   12.4781    0.0000 </r>
       <r>   19.1926    0.0000 </r>
       <r>   21.0543    0.0000 </r>
       <r>   29.8595    0.0000 </r>
       <r>   36.3612    0.0000 </r>
       <r>   39.5198    0.0000 </r>
      </set>
      <set comment="kpoint 39">
       <r>    3.3543    1.0000 </r>
       <r>    3.7353    1.0000 </r>
       <r>    4.0702    1.0000 </r>
       <r>    4.9967    1.0000 </r>
       <r>    5.5706    1.0000 </r>
       <r>    9.0925    0.0000 </r>
       <r>   13.5559    0.0000 </r>
       <r>   18.1807    0.0000 </r>
       <r>   22.3725    0.0000 </r>
       <r>   30.7235    0.0000 </r>
       <r>   35.5781    0.0000 </r>
       <r>   40.7539    0.0000 </r>
      </set>
      <set comment="kpoint 40">
       <r>    2.8501    1.0000 </r>
       <r>    3.7889    1.0000 </r>
       <r>    4.0511    1.0000 </r>
       <r>    5.0519    1.0000 </r>
       <r>    5.2920    1.0000 </r>
       <r>    7.1289    1.0000 </r>
       <r>   17.1606    0.0000 </r>
       <r>   18.2605    0.0000 </r>
       <r>   24.3068    0.0000 </r>
       <r>   32.1197    0.0000 </r>
       <r>   34.0122    0.0000 </r>
       <r>   37.7482    0.0000 </r>
      </set>
      <set comment="kpoint 41">
       <r>    2.7894    1.0000 </r>
       <r>    3.2816    1.0000 </r>
       <r>    4.9165    1.0000 </r>
       <r>    5.5693    1.0000 </r>
       <r>    5.6993    1.0000 </r>
       <r>    7.8338    0.0000 </r>
       <r>   17.7287    0.0000 </r>
       <r>   18.6487    0.0000 </r>
       <r>   19.2935    0.0000 </r>
       <r>   27.9278    0.0000 </r>
       <r>   30.2010    0.0000 </r>
       <r>   42.8838    0.0000 </r>
      </set>
      <set comment="kpoint 42">
       <r>    3.0758    1.0000 </r>
       <r>    3.3793    1.0000 </r>
       <r>    4.6378    1.0000 </r>
       <r>    5.3703    1.0000 </r>
       <r>    5.8067    1.0000 </r>
       <r>   10.2560    0.0000 </r>
       <r>   15.0553    0.0000 </r>
       <r>   16.0360    0.0000 </r>
       <r>   19.4259    0.0000 </r>
       <r>   28.9104    0.0000 </r>
       <r>   33.7320    0.0000 </r>
       <r>   40.9808    0.0000 </r>
      </set>
      <set comment="kpoint 43">
       <r>    3.3917    1.0000 </r>
       <r>    3.5395    1.0000 </r>
       <r>    4.2436    1.0000 </r>
       <r>    5.1809    1.0000 </r>
       <r>    5.7021    1.0000 </r>
       <r>   11.7295    0.0000 </r>
       <r>   12.8498    0.0000 </r>
       <r>   15.5323    0.0000 </r>
       <r>   20.5832    0.0000 </r>
       <r>   29.6844    0.0000 </r>
       <r>   38.5660    0.0000 </r>
       <r>   38.7409    0.0000 </r>
      </set>
      <set comment="kpoint 44">
       <r>    2.8043    1.0000 </r>
       <r>    3.1729    1.0000 </r>
       <r>    5.2404    1.0000 </r>
       <r>    5.5758    1.0000 </r>
       <r>    5.8854    1.0000 </r>
       <r>    9.9506    0.0000 </r>
       <r>   14.5401    0.0000 </r>
       <r>   18.0617    0.0000 </r>
       <r>   18.7249    0.0000 </r>
       <r>   27.5964    0.0000 </r>
       <r>   29.9483    0.0000 </r>
       <r>   44.8368    0.0000 </r>
      </set>
      <set comment="kpoint 45">
       <r>    3.3107    1.0000 </r>
       <r>    3.6456    1.0000 </r>
       <r>    4.0631    1.0000 </r>
       <r>    5.2393    1.0000 </r>
       <r>    5.6960    1.0000 </r>
       <r>    9.5317    0.0000 </r>
       <r>   15.5371    0.0000 </r>
       <r>   17.0033    0.0000 </r>
       <r>   18.8142    0.0000 </r>
       <r>   32.8973    0.0000 </r>
       <r>   34.0485    0.0000 </r>
       <r>   37.6111    0.0000 </r>
      </set>
      <set comment="kpoint 46">
       <r>    3.4039    1.0000 </r>
       <r>    3.7526    1.0000 </r>
       <r>    3.9751    1.0000 </r>
       <r>    5.1454    1.0000 </r>
       <r>    5.7969    1.0000 </r>
       <r>   12.1190    0.0000 </r>
       <r>   12.7078    0.0000 </r>
       <r>   17.2470    0.0000 </r>
       <r>   17.4474    0.0000 </r>
       <r>   33.4513    0.0000 </r>
       <r>   35.1103    0.0000 </r>
       <r>   38.7006    0.0000 </r>
      </set>
      <set comment="kpoint 47">
       <r>    3.2273    1.0000 </r>
       <r>    3.5857    1.0000 </r>
       <r>    4.2936    1.0000 </r>
       <r>    5.2353    1.0000 </r>
       <r>    5.8858    1.0000 </r>
       <r>   12.1710    0.0000 </r>
       <r>   14.9425    0.0000 </r>
       <r>   15.1795    0.0000 </r>
       <r>   16.6101    0.0000 </r>
       <r>   32.5213    0.0000 </r>
       <r>   34.8788    0.0000 </r>
       <r>   38.3476    0.0000 </r>
      </set>
     </set>
    </set>
   </array>
  </eigenvalues>
  <separator name="orbital magnetization" >
   <v name="MAGDIPOLOUT">      0.00000000      0.00000000      0.00000000</v>
  </separator>
  <dos>
   <i name="efermi">      7.25322737 </i>
   <total>
    <array>
     <dimension dim="1">gridpoints</dimension>
     <dimension dim="2">spin</dimension>
     <field>energy</field>
     <field>total</field>
     <field>integrated</field>
     <set>
      <set comment="spin 1">
       <r>    -4.3977     0.0000     0.0000 </r>
       <r>    -4.2109     0.0000     0.0000 </r>
       <r>    -4.0241     0.0000     0.0000 </r>
       <r>    -3.8373     0.0000     0.0000 </r>
       <r>    -3.6506     0.0000     0.0000 </r>
       <r>    -3.4638     0.0000     0.0000 </r>
       <r>    -3.2770     0.0000     0.0000 </r>
       <r>    -3.0902     0.0000     0.0000 </r>
       <r>    -2.9034     0.0000     0.0000 </r>
       <r>    -2.7166     0.0000     0.0000 </r>
       <r>    -2.5298     0.0000     0.0000 </r>
       <r>    -2.3430     0.0000     0.0000 </r>
       <r>    -2.1562     0.0000     0.0000 </r>
       <r>    -1.9694     0.0000     0.0000 </r>
       <r>    -1.7827     0.0107     0.0020 </r>
       <r>    -1.5959     0.0000     0.0020 </r>
       <r>    -1.4091     0.0889     0.0186 </r>
       <r>    -1.2223     0.0610     0.0300 </r>
       <r>    -1.0355     0.0000     0.0300 </r>
       <r>    -0.8487     0.1282     0.0540 </r>
       <r>    -0.6619     0.0000     0.0540 </r>
       <r>    -0.4751     0.2831     0.1069 </r>
       <r>    -0.2883     0.0595     0.1180 </r>
       <r>    -0.1015     0.0000     0.1180 </r>
       <r>     0.0852     0.0642     0.1300 </r>
       <r>     0.2720     0.0554     0.1403 </r>
       <r>     0.4588     0.4578     0.2259 </r>
       <r>     0.6456     0.0000     0.2260 </r>
       <r>     0.8324     0.2559     0.2738 </r>
       <r>     1.0192     0.0598     0.2852 </r>
       <r>     1.2060     0.2828     0.3380 </r>
       <r>     1.3928     0.0000     0.3380 </r>
       <r>     1.5796     0.1251     0.3614 </r>
       <r>     1.7664     0.6417     0.4812 </r>
       <r>     1.9531     0.1968     0.5180 </r>
       <r>     2.1399     0.5628     0.6231 </r>
       <r>     2.3267     0.2425     0.6686 </r>
       <r>     2.5135     0.5739     0.7758 </r>
       <r>     2.7003     0.7045     0.9074 </r>
       <r>     2.8871     1.4059     1.1700 </r>
       <r>     3.0739     1.8809     1.5214 </r>
       <r>     3.2607     0.9868     1.7057 </r>
       <r>     3.4475     3.4649     2.3529 </r>
       <r>     3.6343     1.8150     2.6923 </r>
       <r>     3.8210     2.1696     3.0978 </r>
       <r>     4.0078     2.0303     3.4770 </r>
       <r>     4.1946     3.1401     4.0636 </r>
       <r>     4.3814     4.3353     4.8736 </r>
       <r>     4.5682     4.2122     5.6604 </r>
       <r>     4.7550     3.1355     6.2463 </r>
       <r>     4.9418     3.1547     6.8356 </r>
       <r>     5.1286     3.0871     7.4122 </r>
       <r>     5.3154     4.6161     8.2745 </r>
       <r>     5.5022     2.6148     8.7630 </r>
       <r>     5.6889     4.3119     9.5684 </r>
       <r>     5.8757     4.0443    10.3239 </r>
       <r>     6.0625     1.5397    10.6115 </r>
       <r>     6.2493     0.2989    10.6674 </r>
       <r>     6.4361     0.3503    10.7328 </r>
       <r>     6.6229     0.0064    10.7340 </r>
       <r>     6.8097     0.0281    10.7393 </r>
       <r>     6.9965     0.3038    10.7960 </r>
       <r>     7.1833     0.9320    10.9701 </r>
       <r>     7.3700     0.3408    11.0340 </r>
       <r>     7.5568     0.5139    11.1300 </r>
       <r>     7.7436     0.0000    11.1300 </r>
       <r>     7.9304     0.2570    11.1780 </r>
       <r>     8.1172     0.2568    11.2260 </r>
       <r>     8.3040     0.0000    11.2260 </r>
       <r>     8.4908     0.2276    11.2685 </r>
       <r>     8.6776     0.1842    11.3029 </r>
       <r>     8.8644     0.6471    11.4238 </r>
       <r>     9.0512     0.1427    11.4505 </r>
       <r>     9.2379     0.5008    11.5440 </r>
       <r>     9.4247     0.0000    11.5440 </r>
       <r>     9.6115     0.2570    11.5920 </r>
       <r>     9.7983     0.0478    11.6009 </r>
       <r>     9.9851     0.5880    11.7107 </r>
       <r>    10.1719     0.0067    11.7120 </r>
       <r>    10.3587     0.5139    11.8080 </r>
       <r>    10.5455     0.0000    11.8080 </r>
       <r>    10.7323     0.0000    11.8080 </r>
       <r>    10.9191     0.1285    11.8320 </r>
       <r>    11.1058     0.2949    11.8871 </r>
       <r>    11.2926     0.0176    11.8904 </r>
       <r>    11.4794     0.4483    11.9741 </r>
       <r>    11.6662     0.0533    11.9841 </r>
       <r>    11.8530     0.2571    12.0321 </r>
       <r>    12.0398     0.2660    12.0818 </r>
       <r>    12.2266     0.6323    12.1999 </r>
       <r>    12.4134     0.2576    12.2481 </r>
       <r>    12.6002     0.5134    12.3440 </r>
       <r>    12.7870     0.2573    12.3921 </r>
       <r>    12.9737     0.5135    12.4880 </r>
       <r>    13.1605     0.0001    12.4880 </r>
       <r>    13.3473     0.0855    12.5040 </r>
       <r>    13.5341     0.0782    12.5186 </r>
       <r>    13.7209     0.4358    12.6000 </r>
       <r>    13.9077     0.4581    12.6856 </r>
       <r>    14.0945     0.0559    12.6960 </r>
       <r>    14.2813     0.0000    12.6960 </r>
       <r>    14.4681     0.0426    12.7040 </r>
       <r>    14.6549     0.3625    12.7717 </r>
       <r>    14.8416     0.2695    12.8220 </r>
       <r>    15.0284     0.3096    12.8798 </r>
       <r>    15.2152     0.5844    12.9890 </r>
       <r>    15.4020     0.2848    13.0422 </r>
       <r>    15.5888     1.0025    13.2295 </r>
       <r>    15.7756     0.0019    13.2300 </r>
       <r>    15.9624     0.0001    13.2300 </r>
       <r>    16.1492     1.0963    13.4348 </r>
       <r>    16.3360     0.1885    13.4700 </r>
       <r>    16.5228     0.1169    13.4918 </r>
       <r>    16.7095     0.2795    13.5440 </r>
       <r>    16.8963     0.3745    13.6140 </r>
       <r>    17.0831     0.2570    13.6620 </r>
       <r>    17.2699     0.4784    13.7514 </r>
       <r>    17.4567     0.3575    13.8181 </r>
       <r>    17.6435     0.0847    13.8340 </r>
       <r>    17.8303     0.2570    13.8820 </r>
       <r>    18.0171     0.0072    13.8833 </r>
       <r>    18.2039     1.3463    14.1348 </r>
       <r>    18.3907     0.5738    14.2420 </r>
       <r>    18.5774     0.0001    14.2420 </r>
       <r>    18.7642     0.3836    14.3137 </r>
       <r>    18.9510     0.2587    14.3620 </r>
       <r>    19.1378     0.2297    14.4049 </r>
       <r>    19.3246     0.7940    14.5532 </r>
       <r>    19.5114     0.7771    14.6984 </r>
       <r>    19.6982     0.1265    14.7220 </r>
       <r>    19.8850     0.2208    14.7633 </r>
       <r>    20.0718     0.0361    14.7700 </r>
       <r>    20.2586     0.4107    14.8467 </r>
       <r>    20.4453     1.0603    15.0448 </r>
       <r>    20.6321     0.2609    15.0935 </r>
       <r>    20.8189     0.4915    15.1853 </r>
       <r>    21.0057     0.8817    15.3500 </r>
       <r>    21.1925     0.5563    15.4540 </r>
       <r>    21.3793     0.0784    15.4687 </r>
       <r>    21.5661     0.1789    15.5021 </r>
       <r>    21.7529     0.3851    15.5740 </r>
       <r>    21.9397     0.0000    15.5740 </r>
       <r>    22.1265     0.1339    15.5990 </r>
       <r>    22.3132     0.6249    15.7157 </r>
       <r>    22.5000     1.3827    15.9740 </r>
       <r>    22.6868     0.2591    16.0224 </r>
       <r>    22.8736     0.0627    16.0341 </r>
       <r>    23.0604     0.3848    16.1060 </r>
       <r>    23.2472     0.5074    16.2008 </r>
       <r>    23.4340     0.4954    16.2933 </r>
       <r>    23.6208     0.2821    16.3460 </r>
       <r>    23.8076     0.0000    16.3460 </r>
       <r>    23.9944     0.0004    16.3461 </r>
       <r>    24.1811     0.5136    16.4420 </r>
       <r>    24.3679     0.2566    16.4899 </r>
       <r>    24.5547     0.6736    16.6158 </r>
       <r>    24.7415     0.6588    16.7389 </r>
       <r>    24.9283     0.3094    16.7968 </r>
       <r>    25.1151     0.2529    16.8440 </r>
       <r>    25.3019     0.1285    16.8680 </r>
       <r>    25.4887     0.0780    16.8826 </r>
       <r>    25.6755     0.4683    16.9700 </r>
       <r>    25.8623     0.8026    17.1200 </r>
       <r>    26.0490     0.0000    17.1200 </r>
       <r>    26.2358     0.3968    17.1941 </r>
       <r>    26.4226     0.3652    17.2626 </r>
       <r>    26.6094     0.2532    17.3099 </r>
       <r>    26.7962     0.7624    17.4523 </r>
       <r>    26.9830     0.5185    17.5496 </r>
       <r>    27.1698     0.7235    17.6847 </r>
       <r>    27.3566     0.2408    17.7297 </r>
       <r>    27.5434     0.3143    17.7884 </r>
       <r>    27.7302     0.7876    17.9356 </r>
       <r>    27.9169     0.5671    18.0415 </r>
       <r>    28.1037     0.2624    18.0905 </r>
       <r>    28.2905     0.2851    18.1437 </r>
       <r>    28.4773     0.5852    18.2531 </r>
       <r>    28.6641     0.4361    18.3346 </r>
       <r>    28.8509     0.4867    18.4255 </r>
       <r>    29.0377     0.7735    18.5700 </r>
       <r>    29.2245     0.4506    18.6542 </r>
       <r>    29.4113     0.5344    18.7540 </r>
       <r>    29.5981     0.6069    18.8674 </r>
       <r>    29.7848     0.5136    18.9633 </r>
       <r>    29.9716     0.9728    19.1450 </r>
       <r>    30.1584     0.5982    19.2568 </r>
       <r>    30.3452     0.9865    19.4411 </r>
       <r>    30.5320     0.5229    19.5387 </r>
       <r>    30.7188     0.5283    19.6374 </r>
       <r>    30.9056     0.9348    19.8120 </r>
       <r>    31.0924     0.1732    19.8444 </r>
       <r>    31.2792     0.3407    19.9080 </r>
       <r>    31.4660     0.1676    19.9393 </r>
       <r>    31.6527     0.2587    19.9876 </r>
       <r>    31.8395     0.1820    20.0216 </r>
       <r>    32.0263     0.2040    20.0597 </r>
       <r>    32.2131     0.3371    20.1227 </r>
       <r>    32.3999     0.0392    20.1300 </r>
       <r>    32.5867     0.1284    20.1540 </r>
       <r>    32.7735     0.0487    20.1631 </r>
       <r>    32.9603     0.6361    20.2819 </r>
       <r>    33.1471     0.0362    20.2888 </r>
       <r>    33.3339     0.2208    20.3300 </r>
       <r>    33.5206     0.6398    20.4495 </r>
       <r>    33.7074     0.2603    20.4982 </r>
       <r>    33.8942     1.4122    20.7620 </r>
       <r>    34.0810     0.6135    20.8766 </r>
       <r>    34.2678     0.9283    21.0500 </r>
       <r>    34.4546     0.6451    21.1705 </r>
       <r>    34.6414     0.7848    21.3171 </r>
       <r>    34.8282     0.5100    21.4124 </r>
       <r>    35.0150     0.3938    21.4859 </r>
       <r>    35.2018     1.0710    21.6860 </r>
       <r>    35.3885     0.3855    21.7580 </r>
       <r>    35.5753     0.2299    21.8010 </r>
       <r>    35.7621     0.2840    21.8540 </r>
       <r>    35.9489     0.0000    21.8540 </r>
       <r>    36.1357     0.2493    21.9006 </r>
       <r>    36.3225     0.1965    21.9373 </r>
       <r>    36.5093     0.4964    22.0300 </r>
       <r>    36.6961     0.5233    22.1277 </r>
       <r>    36.8829     0.5447    22.2295 </r>
       <r>    37.0697     0.5855    22.3390 </r>
       <r>    37.2564     0.3160    22.3980 </r>
       <r>    37.4432     0.2302    22.4410 </r>
       <r>    37.6300     0.4929    22.5331 </r>
       <r>    37.8168     0.3047    22.5900 </r>
       <r>    38.0036     0.0001    22.5900 </r>
       <r>    38.1904     0.2569    22.6380 </r>
       <r>    38.3772     0.1626    22.6684 </r>
       <r>    38.5640     1.1867    22.8900 </r>
       <r>    38.7508     0.7497    23.0301 </r>
       <r>    38.9376     0.0850    23.0460 </r>
       <r>    39.1243     0.4778    23.1353 </r>
       <r>    39.3111     0.0361    23.1420 </r>
       <r>    39.4979     0.3349    23.2046 </r>
       <r>    39.6847     0.4360    23.2860 </r>
       <r>    39.8715     0.0802    23.3010 </r>
       <r>    40.0583     0.1769    23.3340 </r>
       <r>    40.2451     0.5138    23.4300 </r>
       <r>    40.4319     0.0000    23.4300 </r>
       <r>    40.6187     0.0000    23.4300 </r>
       <r>    40.8054     0.5100    23.5253 </r>
       <r>    40.9922     0.3666    23.5937 </r>
       <r>    41.1790     0.1512    23.6220 </r>
       <r>    41.3658     0.5113    23.7175 </r>
       <r>    41.5526     0.0026    23.7180 </r>
       <r>    41.7394     0.0008    23.7181 </r>
       <r>    41.9262     0.0635    23.7300 </r>
       <r>    42.1130     0.0000    23.7300 </r>
       <r>    42.2998     0.0000    23.7300 </r>
       <r>    42.4866     0.0000    23.7300 </r>
       <r>    42.6733     0.0008    23.7302 </r>
       <r>    42.8601     0.2901    23.7843 </r>
       <r>    43.0469     0.2231    23.8260 </r>
       <r>    43.2337     0.0000    23.8260 </r>
       <r>    43.4205     0.0000    23.8260 </r>
       <r>    43.6073     0.0000    23.8260 </r>
       <r>    43.7941     0.0000    23.8260 </r>
       <r>    43.9809     0.0000    23.8260 </r>
       <r>    44.1677     0.0000    23.8260 </r>
       <r>    44.3545     0.0000    23.8260 </r>
       <r>    44.5412     0.0012    23.8262 </r>
       <r>    44.7280     0.3842    23.8980 </r>
       <r>    44.9148     0.1285    23.9220 </r>
       <r>    45.1016     0.0000    23.9220 </r>
       <r>    45.2884     0.0000    23.9220 </r>
       <r>    45.4752     0.0000    23.9220 </r>
       <r>    45.6620     0.0000    23.9220 </r>
       <r>    45.8488     0.0000    23.9220 </r>
       <r>    46.0356     0.0360    23.9287 </r>
       <r>    46.2224     0.0282    23.9340 </r>
       <r>    46.4091     0.0000    23.9340 </r>
       <r>    46.5959     0.0000    23.9340 </r>
       <r>    46.7827     0.0000    23.9340 </r>
       <r>    46.9695     0.2564    23.9819 </r>
       <r>    47.1563     0.0000    23.9820 </r>
       <r>    47.3431     0.0000    23.9820 </r>
       <r>    47.5299     0.0000    23.9820 </r>
       <r>    47.7167     0.0000    23.9820 </r>
       <r>    47.9035     0.0000    23.9820 </r>
       <r>    48.0903     0.0000    23.9820 </r>
       <r>    48.2770     0.0000    23.9820 </r>
       <r>    48.4638     0.0045    23.9828 </r>
       <r>    48.6506     0.0597    23.9940 </r>
       <r>    48.8374     0.0000    23.9940 </r>
       <r>    49.0242     0.0000    23.9940 </r>
       <r>    49.2110     0.0321    24.0000 </r>
       <r>    49.3978     0.0000    24.0000 </r>
       <r>    49.5846     0.0000    24.0000 </r>
       <r>    49.7714     0.0000    24.0000 </r>
       <r>    49.9582     0.0000    24.0000 </r>
       <r>    50.1449     0.0000    24.0000 </r>
       <r>    50.3317     0.0000    24.0000 </r>
       <r>    50.5185     0.0000    24.0000 </r>
       <r>    50.7053     0.0000    24.0000 </r>
       <r>    50.8921     0.0000    24.0000 </r>
       <r>    51.0789     0.0000    24.0000 </r>
       <r>    51.2657     0.0000    24.0000 </r>
       <r>    51.4525     0.0000    24.0000 </r>
       <r>    51.6393     0.0000    24.0000 </r>
      </set>
     </set>
    </array>
   </total>
  </dos>
 </calculation>
 <structure name="finalpos" >
  <crystal>
   <varray name="basis" >
    <v>       0.00000000       1.81841034       1.81841034 </v>
    <v>       1.81841034       0.00000000       1.81841034 </v>
    <v>       1.81841034       1.81841034       0.00000000 </v>
   </varray>
   <i name="volume">     12.02556998 </i>
   <varray name="rec_basis" >
    <v>      -0.27496544       0.27496544       0.27496544 </v>
    <v>       0.27496544      -0.27496544       0.27496544 </v>
    <v>       0.27496544       0.27496544      -0.27496544 </v>
   </varray>
  </crystal>
  <varray name="positions" >
   <v>       0.00000000       0.00000000       0.00000000 </v>
  </varray>
 </structure>
</modeling>
