-------------------Job starts at-------------------
11:11:51 Feb-15-2025
---------------------------------------------------

Lmod is automatically replacing "gcc/12.3" with "intel/2023.2.1".


Due to MODULEPATH changes, the following have been reloaded:
  1) flexiblas/3.3.1     2) openmpi/4.1.5

Lmod Warning:  Please use the version of VASP compiled with Intel MPI, as the
version with openmpi-4.1.5 exhibits a memory leak, resulting in continuously
increasing memory usage at runtime.

   Veuillez utiliser la version de VASP compilée avec Intel MPI, car la
version avec openmpi-4.1.5 présente une fuite de mémoire, entraînant une
augmentation continue de l'utilisation de la mémoire pendant l'exécution. 
While processing the following module(s):
    Module fullname  Module Filename
    ---------------  ---------------
    vasp/6.4.2       /cvmfs/soft.computecanada.ca/easybuild/modules/2023/x86-64-v3/MPI/intel2023/openmpi4/vasp/6.4.2.lua

 running    4 mpi-ranks, on    1 nodes
 distrk:  each k-point on    4 cores,    1 groups
 distr:  one band on    1 cores,    4 groups
 vasp.6.4.2 20Jul23 (build Oct 16 2024 22:45:58) complex                        
  
 POSCAR found type information on POSCAR Cu
 POSCAR found :  1 types and       1 ions
 Reading from existing POTCAR
 scaLAPACK will be used
 Reading from existing POTCAR
 LDA part: xc-table for Pade appr. of Perdew
 POSCAR found type information on POSCAR Cu
 POSCAR found :  1 types and       1 ions
 POSCAR, INCAR and KPOINTS ok, starting setup
 FFT: planning ... GRIDC
 FFT: planning ... GRID_SOFT
 FFT: planning ... GRID
 WAVECAR not read
 WARNING: random wavefunctions but no delay for mixing, default for NELMDL
 entering main loop
       N       E                     dE             d eps       ncg     rms          rms(c)
DAV:   1     0.394347822325E+02    0.39435E+02   -0.53515E+03  1276   0.151E+03
DAV:   2    -0.333434046663E+01   -0.42769E+02   -0.39055E+02  1168   0.196E+02
DAV:   3    -0.460247864968E+01   -0.12681E+01   -0.12527E+01  1348   0.384E+01
DAV:   4    -0.461179614419E+01   -0.93175E-02   -0.93167E-02  1300   0.283E+00
DAV:   5    -0.461188678270E+01   -0.90639E-04   -0.90637E-04  1356   0.284E-01    0.763E+00
DAV:   6    -0.410492421722E+01    0.50696E+00   -0.14555E+01  1336   0.720E+01    0.401E+00
DAV:   7    -0.372548229375E+01    0.37944E+00   -0.23585E+00  1340   0.288E+01    0.562E-01
DAV:   8    -0.371521271435E+01    0.10270E-01   -0.45782E-03  1308   0.107E+00    0.312E-01
DAV:   9    -0.371350720031E+01    0.17055E-02   -0.10734E-02  1408   0.178E+00    0.310E-02
DAV:  10    -0.371350804403E+01   -0.84373E-06   -0.39751E-05  1656   0.103E-01    0.100E-02
DAV:  11    -0.371350672046E+01    0.13236E-05   -0.19810E-06  1400   0.256E-02    0.248E-04
DAV:  12    -0.371350682773E+01   -0.10727E-06   -0.17299E-08  1344   0.127E-03    0.143E-04
DAV:  13    -0.371350685175E+01   -0.24017E-07   -0.30562E-09  1536   0.506E-04    0.494E-05
DAV:  14    -0.371350686207E+01   -0.10320E-07   -0.14817E-10   864   0.214E-04    0.418E-06
DAV:  15    -0.371350686085E+01    0.12171E-08   -0.49209E-12   708   0.313E-05    0.162E-06
DAV:  16    -0.371350685945E+01    0.14038E-08   -0.16131E-12   676   0.192E-05    0.507E-07
DAV:  17    -0.371350686015E+01   -0.69804E-09   -0.71367E-13   688   0.115E-05    0.419E-07
DAV:  18    -0.371350685952E+01    0.62505E-09   -0.40797E-13   656   0.553E-06    0.315E-08
DAV:  19    -0.371350685924E+01    0.28717E-09   -0.43978E-13   620   0.252E-06    0.761E-08
DAV:  20    -0.371350685925E+01   -0.11823E-10   -0.11327E-13   632   0.157E-06
   1 F= -.37135069E+01 E0= -.37133321E+01  d E =-.349577E-03
--------------------Job ends at--------------------
11:12:10 Feb-15-2025
---------------------------------------------------
