Si FCC                                  
   1.00000000000000     
     0.000000    2.734292    2.734292
     2.734292    0.000000    2.734292
     2.734292    2.734292    0.000000
  Si/79d9987ad87
               2
Direct
  0.000000  0.000000  0.000000
  0.250000  0.250000  0.250000
 
   60   60   60
 -.76710032181E+01 -.71422800201E+01 -.56105758079E+01 -.32315075712E+01 -.23975225790E+00
 0.30836491322E+01 0.64487273404E+01 0.95918637526E+01 0.12302838271E+02 0.14440205628E+02
 0.15934932963E+02 0.16784890562E+02 0.17043773827E+02 0.16807447117E+02 0.16199370379E+02
 0.15355706490E+02 0.14406782435E+02 0.13426555223E+02 0.12453212705E+02 0.11519605102E+02
 0.10651202603E+02 0.98647547082E+01 0.91685783990E+01 0.85642422910E+01 0.80490452498E+01
 0.76185767508E+01 0.72687530310E+01 0.69969698567E+01 0.68023165484E+01 0.66850732163E+01
 0.66458892547E+01 0.66850732164E+01 0.68023165484E+01 0.69969698567E+01 0.72687530310E+01
 0.76185767507E+01 0.80490452498E+01 0.85642422909E+01 0.91685783990E+01 0.98647547082E+01
 0.10651202603E+02 0.11519605102E+02 0.12453212705E+02 0.13426555223E+02 0.14406782435E+02
 0.15355706490E+02 0.16199370379E+02 0.16807447117E+02 0.17043773827E+02 0.16784890562E+02
 0.15934932963E+02 0.14440205627E+02 0.12302838270E+02 0.95918637520E+01 0.64487273399E+01
 0.30836491319E+01 -.23975225800E+00 -.32315075711E+01 -.56105758078E+01 -.71422800200E+01
 -.71422800201E+01 -.60670399584E+01 -.40297965388E+01 -.12399985780E+01 0.20276085421E+01
 0.54719122083E+01 0.88048581009E+01 0.11784111301E+02 0.14234036787E+02 0.16053684946E+02
 0.17213808453E+02 0.17746720651E+02 0.17732713547E+02 0.17285433585E+02 0.16537174176E+02
 0.15624204673E+02 0.14652492156E+02 0.13668345155E+02 0.12706868358E+02 0.11797216658E+02
 0.10960556333E+02 0.10209487852E+02 0.95490193783E+01 0.89786849875E+01 0.84951331104E+01
 0.80944896283E+01 0.77739733359E+01 0.75325312972E+01 0.73705798062E+01 0.72891917859E+01
 0.72891917859E+01 0.73705798062E+01 0.75325312972E+01 0.77739733359E+01 0.80944896283E+01
 0.84951331103E+01 0.89786849875E+01 0.95490193782E+01 0.10209487852E+02 0.10960556333E+02
 0.11797216658E+02 0.12706868358E+02 0.13668345155E+02 0.14652492156E+02 0.15624204673E+02
 0.16537174176E+02 0.17285433586E+02 0.17732713548E+02 0.17746720651E+02 0.17213808453E+02
 0.16053684946E+02 0.14234036787E+02 0.11784111300E+02 0.88048581004E+01 0.54719122079E+01
 0.20276085420E+01 -.12399985779E+01 -.40297965386E+01 -.60670399582E+01 -.71422800200E+01
 -.56105758079E+01 -.40297965388E+01 -.15841675424E+01 0.14738814427E+01 0.48466076971E+01
 0.82327729259E+01 0.11365128437E+02 0.14037191777E+02 0.16116475715E+02 0.17545159905E+02
 0.18331792639E+02 0.18538226676E+02 0.18264974237E+02 0.17636540555E+02 0.16787094134E+02
 0.15841116912E+02 0.14864122509E+02 0.13892291867E+02 0.12957147130E+02 0.12083362239E+02
 0.11287459704E+02 0.10578018543E+02 0.99572511676E+01 0.94234047436E+01 0.89732793798E+01
 0.86042224902E+01 0.83151963482E+01 0.81068410940E+01 0.79807692380E+01 0.79385353871E+01
 0.79807692380E+01 0.81068410940E+01 0.83151963483E+01 0.86042224902E+01 0.89732793798E+01
 0.94234047435E+01 0.99572511675E+01 0.10578018543E+02 0.11287459704E+02 0.12083362239E+02
 0.12957147130E+02 0.13892291867E+02 0.14864122509E+02 0.15841116912E+02 0.16787094134E+02
 0.17636540555E+02 0.18264974237E+02 0.18538226676E+02 0.18331792639E+02 0.17545159905E+02
 0.16116475714E+02 0.14037191776E+02 0.11365128436E+02 0.82327729256E+01 0.48466076970E+01
 0.14738814428E+01 -.15841675422E+01 -.40297965386E+01 -.56105758078E+01 -.61573445066E+01
 -.32315075712E+01 -.12399985780E+01 0.14738814427E+01 0.46314931028E+01 0.79321902139E+01
 0.11094025989E+02 0.13885793234E+02 0.16145938819E+02 0.17787918921E+02 0.18794848255E+02
 0.19207735682E+02 0.19111130105E+02 0.18618463334E+02 0.17857871807E+02 0.16957871034E+02
 0.16006765538E+02 0.15043680979E+02 0.14101229571E+02 0.13206479298E+02 0.12379171643E+02
 0.11631235608E+02 0.10967737635E+02 0.10388922579E+02 0.98927062780E+01 0.94769228636E+01
 0.91407834204E+01 0.88852994967E+01 0.87127687105E+01 0.86257014401E+01 0.86257014401E+01
 0.87127687105E+01 0.88852994967E+01 0.91407834204E+01 0.94769228636E+01 0.98927062779E+01
 0.10388922579E+02 0.10967737635E+02 0.11631235608E+02 0.12379171643E+02 0.13206479298E+02
 0.14101229571E+02 0.15043680979E+02 0.16006765538E+02 0.16957871034E+02 0.17857871807E+02
 0.18618463334E+02 0.19111130105E+02 0.19207735683E+02 0.18794848255E+02 0.17787918921E+02
 0.16145938819E+02 0.13885793234E+02 0.11094025989E+02 0.79321902139E+01 0.46314931029E+01
 0.14738814429E+01 -.12399985778E+01 -.32315075710E+01 -.42857651893E+01 -.42857651894E+01
 -.23975225790E+00 0.20276085421E+01 0.48466076971E+01 0.79321902139E+01 0.11000353199E+02
 0.13804091359E+02 0.16157752090E+02 0.17947725558E+02 0.19131122728E+02 0.19726322948E+02
 0.19799537849E+02 0.19450358789E+02 0.18797668248E+02 0.17966197213E+02 0.17060098293E+02
 0.16125796994E+02 0.15195933226E+02 0.14298833909E+02 0.13456540205E+02 0.12683799075E+02
 0.11988405143E+02 0.11372779944E+02 0.10836283952E+02 0.10377576019E+02 0.99963832522E+01
 0.96942817210E+01 0.94744303677E+01 0.93405343310E+01 0.92955313110E+01 0.93405343310E+01
 0.94744303677E+01 0.96942817210E+01 0.99963832522E+01 0.10377576019E+02 0.10836283952E+02
 0.11372779944E+02 0.11988405143E+02 0.12683799075E+02 0.13456540205E+02 0.14298833909E+02
 0.15195933226E+02 0.16125796994E+02 0.17060098293E+02 0.17966197213E+02 0.18797668248E+02
 0.19450358790E+02 0.19799537849E+02 0.19726322948E+02 0.19131122728E+02 0.17947725558E+02
 0.16157752090E+02 0.13804091359E+02 0.11000353199E+02 0.79321902140E+01 0.48466076972E+01
 0.20276085422E+01 -.23975225779E+00 -.17109537937E+01 -.22208104308E+01 -.17109537938E+01
 0.30836491322E+01 0.54719122083E+01 0.82327729259E+01 0.11094025989E+02 0.13804091359E+02
 0.16160754165E+02 0.18027214048E+02 0.19335576004E+02 0.20080755504E+02 0.20308828405E+02
 0.20103253367E+02 0.19570979744E+02 0.18829164562E+02 0.17987215370E+02 0.17101968382E+02
 0.16205465854E+02 0.15326284358E+02 0.14487772200E+02 0.13706740220E+02 0.12993302225E+02
 0.12351974082E+02 0.11783701991E+02 0.11288206613E+02 0.10865966819E+02 0.10519321509E+02
 0.10252478751E+02 0.10070581256E+02 0.99782639660E+01 0.99782639660E+01 0.10070581256E+02
 0.10252478751E+02 0.10519321509E+02 0.10865966819E+02 0.11288206613E+02 0.11783701991E+02
 0.12351974082E+02 0.12993302225E+02 0.13706740220E+02 0.14487772200E+02 0.15326284358E+02
 0.16205465854E+02 0.17101968382E+02 0.17987215370E+02 0.18829164562E+02 0.19570979744E+02
 0.20103253367E+02 0.20308828405E+02 0.20080755504E+02 0.19335576004E+02 0.18027214048E+02
 0.16160754165E+02 0.13804091360E+02 0.11094025989E+02 0.82327729258E+01 0.54719122082E+01
 0.30836491321E+01 0.13230820203E+01 0.38853374280E+00 0.38853374281E+00 0.13230820203E+01
 0.64487273404E+01 0.88048581009E+01 0.11365128437E+02 0.13885793234E+02 0.16157752090E+02
 0.18027214048E+02 0.19404233211E+02 0.20260796637E+02 0.20621899587E+02 0.20553140474E+02
 0.20147358311E+02 0.19511563791E+02 0.18752640408E+02 0.17936120771E+02 0.17093692862E+02
 0.16253378416E+02 0.15438890324E+02 0.14668238046E+02 0.13953224931E+02 0.13300121628E+02
 0.12711369838E+02 0.12187818530E+02 0.11730829156E+02 0.11343646060E+02 0.11031683606E+02
 0.10801741278E+02 0.10660495418E+02 0.10612818882E+02 0.10660495418E+02 0.10801741278E+02
 0.11031683606E+02 0.11343646060E+02 0.11730829156E+02 0.12187818530E+02 0.12711369839E+02
 0.13300121628E+02 0.13953224931E+02 0.14668238046E+02 0.15438890324E+02 0.16253378416E+02
 0.17093692862E+02 0.17936120771E+02 0.18752640407E+02 0.19511563791E+02 0.20147358311E+02
 0.20553140474E+02 0.20621899587E+02 0.20260796637E+02 0.19404233211E+02 0.18027214048E+02
 0.16157752091E+02 0.13885793234E+02 0.11365128437E+02 0.88048581008E+01 0.64487273402E+01
 0.45438194360E+01 0.33036368848E+01 0.28731270940E+01 0.33036368849E+01 0.45438194361E+01
 0.95918637526E+01 0.11784111301E+02 0.14037191777E+02 0.16145938819E+02 0.17947725558E+02
 0.19335576004E+02 0.20260796637E+02 0.20727559485E+02 0.20782660050E+02 0.20503217041E+02
 0.19984046693E+02 0.19324854292E+02 0.18595128579E+02 0.17826372940E+02 0.17045459092E+02
 0.16275649973E+02 0.15535282120E+02 0.14837086563E+02 0.14188538242E+02 0.13593251082E+02
 0.13053057624E+02 0.12570164975E+02 0.12148742108E+02 0.11795476099E+02 0.11518970941E+02
 0.11328230594E+02 0.11230738513E+02 0.11230738513E+02 0.11328230594E+02 0.11518970941E+02
 0.11795476099E+02 0.12148742108E+02 0.12570164975E+02 0.13053057624E+02 0.13593251082E+02
 0.14188538242E+02 0.14837086563E+02 0.15535282120E+02 0.16275649973E+02 0.17045459092E+02
 0.17826372940E+02 0.18595128579E+02 0.19324854292E+02 0.19984046693E+02 0.20503217041E+02
 0.20782660050E+02 0.20727559485E+02 0.20260796637E+02 0.19335576004E+02 0.17947725558E+02
 0.16145938819E+02 0.14037191776E+02 0.11784111301E+02 0.95918637523E+01 0.76843576380E+01
 0.62726868104E+01 0.55216468224E+01 0.55216468225E+01 0.62726868106E+01 0.76843576383E+01
 0.12302838271E+02 0.14234036787E+02 0.16116475715E+02 0.17787918921E+02 0.19131122728E+02
 0.20080755504E+02 0.20621899587E+02 0.20782660050E+02 0.20623554909E+02 0.20225726363E+02
 0.19678916013E+02 0.19051286747E+02 0.18373541705E+02 0.17670966543E+02 0.16965714511E+02
 0.16275649973E+02 0.15613630712E+02 0.14987650156E+02 0.14401977918E+02 0.13859074022E+02
 0.13361752822E+02 0.12914948250E+02 0.12526531569E+02 0.12206924713E+02 0.11967630617E+02
 0.11819128592E+02 0.11768750382E+02 0.11819128591E+02 0.11967630617E+02 0.12206924712E+02
 0.12526531569E+02 0.12914948250E+02 0.13361752822E+02 0.13859074022E+02 0.14401977918E+02
 0.14987650156E+02 0.15613630712E+02 0.16275649972E+02 0.16965714511E+02 0.17670966543E+02
 0.18373541705E+02 0.19051286747E+02 0.19678916013E+02 0.20225726363E+02 0.20623554909E+02
 0.20782660051E+02 0.20621899587E+02 0.20080755504E+02 0.19131122728E+02 0.17787918921E+02
 0.16116475715E+02 0.14234036787E+02 0.12302838270E+02 0.10513575905E+02 0.90604592268E+01
 0.81117913939E+01 0.77820401842E+01 0.81117913940E+01 0.90604592270E+01 0.10513575905E+02
 0.14440205628E+02 0.16053684946E+02 0.17545159905E+02 0.18794848255E+02 0.19726322948E+02
 0.20308828405E+02 0.20553140474E+02 0.20503217041E+02 0.20225726363E+02 0.19798782929E+02
 0.19284607708E+02 0.18711805493E+02 0.18103729853E+02 0.17480907466E+02 0.16860048675E+02
 0.16253378416E+02 0.15668674937E+02 0.15110225070E+02 0.14580590504E+02 0.14082760489E+02
 0.13622071311E+02 0.13207286435E+02 0.12850461507E+02 0.12565585954E+02 0.12366361667E+02
 0.12263719115E+02 0.12263719115E+02 0.12366361667E+02 0.12565585954E+02 0.12850461507E+02
 0.13207286435E+02 0.13622071310E+02 0.14082760489E+02 0.14580590504E+02 0.15110225070E+02
 0.15668674937E+02 0.16253378416E+02 0.16860048675E+02 0.17480907465E+02 0.18103729853E+02
 0.18711805493E+02 0.19284607708E+02 0.19798782929E+02 0.20225726363E+02 0.20503217041E+02
 0.20553140474E+02 0.20308828405E+02 0.19726322948E+02 0.18794848254E+02 0.17545159905E+02
 0.16053684946E+02 0.14440205628E+02 0.12857515028E+02 0.11473102426E+02 0.10445158764E+02
 0.98972743506E+01 0.98972743506E+01 0.10445158764E+02 0.11473102427E+02 0.12857515028E+02
 0.15934932963E+02 0.17213808453E+02 0.18331792639E+02 0.19207735682E+02 0.19799537849E+02
 0.20103253367E+02 0.20147358311E+02 0.19984046693E+02 0.19678916013E+02 0.19284607708E+02
 0.18826265777E+02 0.18325004072E+02 0.17799321469E+02 0.17264227365E+02 0.16730654134E+02
 0.16205465854E+02 0.15692292648E+02 0.15193176207E+02 0.14710704388E+02 0.14250069810E+02
 0.13820419593E+02 0.13435018187E+02 0.13110077785E+02 0.12862376360E+02 0.12706729465E+02
 0.12653589874E+02 0.12706729465E+02 0.12862376360E+02 0.13110077784E+02 0.13435018187E+02
 0.13820419593E+02 0.14250069810E+02 0.14710704388E+02 0.15193176207E+02 0.15692292648E+02
 0.16205465854E+02 0.16730654134E+02 0.17264227364E+02 0.17799321469E+02 0.18325004072E+02
 0.18826265777E+02 0.19284607708E+02 0.19678916014E+02 0.19984046693E+02 0.20147358311E+02
 0.20103253367E+02 0.19799537849E+02 0.19207735682E+02 0.18331792639E+02 0.17213808453E+02
 0.15934932963E+02 0.14609858073E+02 0.13374357282E+02 0.12366976080E+02 0.11707785144E+02
 0.11478410987E+02 0.11707785144E+02 0.12366976080E+02 0.13374357282E+02 0.14609858073E+02
 0.16784890562E+02 0.17746720651E+02 0.18538226676E+02 0.19111130105E+02 0.19450358789E+02
 0.19570979744E+02 0.19511563791E+02 0.19324854292E+02 0.19051286747E+02 0.18711805493E+02
 0.18325004072E+02 0.17907048959E+02 0.17470840075E+02 0.17025494459E+02 0.16576364058E+02
 0.16125796994E+02 0.15674686360E+02 0.15224580088E+02 0.14779860964E+02 0.14349368957E+02
 0.13946862147E+02 0.13589350017E+02 0.13296171335E+02 0.13087038959E+02 0.12977988828E+02
 0.12977988828E+02 0.13087038959E+02 0.13296171335E+02 0.13589350017E+02 0.13946862146E+02
 0.14349368957E+02 0.14779860964E+02 0.15224580088E+02 0.15674686360E+02 0.16125796994E+02
 0.16576364058E+02 0.17025494459E+02 0.17470840075E+02 0.17907048959E+02 0.18325004072E+02
 0.18711805493E+02 0.19051286747E+02 0.19324854292E+02 0.19511563791E+02 0.19570979745E+02
 0.19450358790E+02 0.19111130105E+02 0.18538226676E+02 0.17746720651E+02 0.16784890562E+02
 0.15732302181E+02 0.14692116653E+02 0.13777987730E+02 0.13097334285E+02 0.12734016415E+02
 0.12734016415E+02 0.13097334285E+02 0.13777987729E+02 0.14692116653E+02 0.15732302181E+02
 0.17043773827E+02 0.17732713547E+02 0.18264974237E+02 0.18618463334E+02 0.18797668248E+02
 0.18829164562E+02 0.18752640408E+02 0.18595128579E+02 0.18373541705E+02 0.18103729853E+02
 0.17799321469E+02 0.17470840075E+02 0.17125223504E+02 0.16765861045E+02 0.16393310522E+02
 0.16006765538E+02 0.15606127249E+02 0.15194275904E+02 0.14778949409E+02 0.14372619422E+02
 0.13991678310E+02 0.13658298549E+02 0.13397015941E+02 0.13229955665E+02 0.13172444612E+02
 0.13229955665E+02 0.13397015941E+02 0.13658298549E+02 0.13991678310E+02 0.14372619421E+02
 0.14778949409E+02 0.15194275904E+02 0.15606127249E+02 0.16006765538E+02 0.16393310522E+02
 0.16765861045E+02 0.17125223504E+02 0.17470840075E+02 0.17799321469E+02 0.18103729853E+02
 0.18373541705E+02 0.18595128579E+02 0.18752640408E+02 0.18829164562E+02 0.18797668248E+02
 0.18618463334E+02 0.18264974237E+02 0.17732713548E+02 0.17043773827E+02 0.16247507570E+02
 0.15416541483E+02 0.14638072904E+02 0.14001463744E+02 0.13584191868E+02 0.13438887411E+02
 0.13584191868E+02 0.14001463744E+02 0.14638072904E+02 0.15416541483E+02 0.16247507570E+02
 0.16807447117E+02 0.17285433585E+02 0.17636540555E+02 0.17857871807E+02 0.17966197213E+02
 0.17987215370E+02 0.17936120771E+02 0.17826372940E+02 0.17670966543E+02 0.17480907466E+02
 0.17264227365E+02 0.17025494459E+02 0.16765861045E+02 0.16483749871E+02 0.16176247252E+02
 0.15841116912E+02 0.15479118574E+02 0.15095963507E+02 0.14700902857E+02 0.14309218545E+02
 0.13944748692E+02 0.13636063427E+02 0.13411259629E+02 0.13292682961E+02 0.13292682961E+02
 0.13411259629E+02 0.13636063426E+02 0.13944748692E+02 0.14309218545E+02 0.14700902857E+02
 0.15095963507E+02 0.15479118574E+02 0.15841116912E+02 0.16176247252E+02 0.16483749871E+02
 0.16765861045E+02 0.17025494459E+02 0.17264227364E+02 0.17480907465E+02 0.17670966543E+02
 0.17826372940E+02 0.17936120771E+02 0.17987215370E+02 0.17966197214E+02 0.17857871807E+02
 0.17636540555E+02 0.17285433585E+02 0.16807447117E+02 0.16227658742E+02 0.15592151327E+02
 0.14962858715E+02 0.14408947900E+02 0.13996090407E+02 0.13775598217E+02 0.13775598217E+02
 0.13996090407E+02 0.14408947900E+02 0.14962858715E+02 0.15592151327E+02 0.16227658742E+02
 0.16199370379E+02 0.16537174176E+02 0.16787094134E+02 0.16957871034E+02 0.17060098293E+02
 0.17101968382E+02 0.17093692862E+02 0.17045459092E+02 0.16965714511E+02 0.16860048675E+02
 0.16730654134E+02 0.16576364058E+02 0.16393310522E+02 0.16176247252E+02 0.15920485105E+02
 0.15624204673E+02 0.15290259931E+02 0.14923798702E+02 0.14537689338E+02 0.14155718174E+02
 0.13809042791E+02 0.13530867069E+02 0.13350499074E+02 0.13288001209E+02 0.13350499074E+02
 0.13530867069E+02 0.13809042791E+02 0.14155718174E+02 0.14537689338E+02 0.14923798702E+02
 0.15290259931E+02 0.15624204673E+02 0.15920485105E+02 0.16176247252E+02 0.16393310522E+02
 0.16576364058E+02 0.16730654134E+02 0.16860048675E+02 0.16965714511E+02 0.17045459092E+02
 0.17093692862E+02 0.17101968382E+02 0.17060098293E+02 0.16957871035E+02 0.16787094134E+02
 0.16537174176E+02 0.16199370379E+02 0.15780847839E+02 0.15306238866E+02 0.14815271069E+02
 0.14357308872E+02 0.13983662023E+02 0.13739057699E+02 0.13653928741E+02 0.13739057699E+02
 0.13983662023E+02 0.14357308872E+02 0.14815271069E+02 0.15306238866E+02 0.15780847839E+02
 0.15355706490E+02 0.15624204673E+02 0.15841116912E+02 0.16006765538E+02 0.16125796994E+02
 0.16205465854E+02 0.16253378416E+02 0.16275649973E+02 0.16275649973E+02 0.16253378416E+02
 0.16205465854E+02 0.16125796994E+02 0.16006765538E+02 0.15841116912E+02 0.15624204673E+02
 0.15355706490E+02 0.15036409249E+02 0.14675179070E+02 0.14293740807E+02 0.13923837770E+02
 0.13602158729E+02 0.13364070581E+02 0.13237385502E+02 0.13237385502E+02 0.13364070581E+02
 0.13602158729E+02 0.13923837770E+02 0.14293740807E+02 0.14675179070E+02 0.15036409249E+02
 0.15355706490E+02 0.15624204673E+02 0.15841116912E+02 0.16006765538E+02 0.16125796994E+02
 0.16205465854E+02 0.16253378416E+02 0.16275649972E+02 0.16275649972E+02 0.16253378416E+02
 0.16205465854E+02 0.16125796994E+02 0.16006765538E+02 0.15841116912E+02 0.15624204673E+02
 0.15355706490E+02 0.15036409249E+02 0.14675179070E+02 0.14293740807E+02 0.13923837770E+02
 0.13602158729E+02 0.13364070581E+02 0.13237385502E+02 0.13237385502E+02 0.13364070581E+02
 0.13602158729E+02 0.13923837770E+02 0.14293740807E+02 0.14675179070E+02 0.15036409249E+02
 0.14406782435E+02 0.14652492156E+02 0.14864122509E+02 0.15043680979E+02 0.15195933226E+02
 0.15326284358E+02 0.15438890324E+02 0.15535282120E+02 0.15613630712E+02 0.15668674937E+02
 0.15692292648E+02 0.15674686360E+02 0.15606127249E+02 0.15479118574E+02 0.15290259931E+02
 0.15036409249E+02 0.14721049878E+02 0.14361797026E+02 0.13988639856E+02 0.13639497939E+02
 0.13354043676E+02 0.13166939316E+02 0.13101783890E+02 0.13166939316E+02 0.13354043676E+02
 0.13639497939E+02 0.13988639856E+02 0.14361797026E+02 0.14721049878E+02 0.15036409249E+02
 0.15290259931E+02 0.15479118574E+02 0.15606127249E+02 0.15674686360E+02 0.15692292648E+02
 0.15668674937E+02 0.15613630712E+02 0.15535282120E+02 0.15438890324E+02 0.15326284358E+02
 0.15195933226E+02 0.15043680979E+02 0.14864122509E+02 0.14652492156E+02 0.14406782435E+02
 0.14129665524E+02 0.13829513978E+02 0.13518253726E+02 0.13213411844E+02 0.12938479626E+02
 0.12718741507E+02 0.12576597270E+02 0.12527397986E+02 0.12576597270E+02 0.12718741507E+02
 0.12938479626E+02 0.13213411844E+02 0.13518253726E+02 0.13829513978E+02 0.14129665524E+02
 0.13426555223E+02 0.13668345155E+02 0.13892291867E+02 0.14101229571E+02 0.14298833909E+02
 0.14487772200E+02 0.14668238046E+02 0.14837086563E+02 0.14987650156E+02 0.15110225070E+02
 0.15193176207E+02 0.15224580088E+02 0.15194275904E+02 0.15095963507E+02 0.14923798702E+02
 0.14675179070E+02 0.14361797026E+02 0.14009500954E+02 0.13654804917E+02 0.13339230931E+02
 0.13102460916E+02 0.12975559501E+02 0.12975559501E+02 0.13102460916E+02 0.13339230931E+02
 0.13654804917E+02 0.14009500954E+02 0.14361797026E+02 0.14675179070E+02 0.14923798702E+02
 0.15095963507E+02 0.15194275904E+02 0.15224580088E+02 0.15193176208E+02 0.15110225070E+02
 0.14987650156E+02 0.14837086563E+02 0.14668238046E+02 0.14487772200E+02 0.14298833909E+02
 0.14101229571E+02 0.13892291867E+02 0.13668345156E+02 0.13426555223E+02 0.13166805289E+02
 0.12893159759E+02 0.12614515880E+02 0.12344214292E+02 0.12098493455E+02 0.11894039818E+02
 0.11746852054E+02 0.11669719192E+02 0.11669719192E+02 0.11746852054E+02 0.11894039818E+02
 0.12098493455E+02 0.12344214292E+02 0.12614515880E+02 0.12893159759E+02 0.13166805289E+02
 0.12453212705E+02 0.12706868358E+02 0.12957147130E+02 0.13206479298E+02 0.13456540205E+02
 0.13706740220E+02 0.13953224931E+02 0.14188538242E+02 0.14401977918E+02 0.14580590504E+02
 0.14710704388E+02 0.14779860964E+02 0.14778949409E+02 0.14700902857E+02 0.14537689338E+02
 0.14293740807E+02 0.13988639856E+02 0.13654804917E+02 0.13332730766E+02 0.13064525730E+02
 0.12886871172E+02 0.12824708402E+02 0.12886871172E+02 0.13064525730E+02 0.13332730766E+02
 0.13654804917E+02 0.13988639856E+02 0.14293740807E+02 0.14537689338E+02 0.14700902857E+02
 0.14778949409E+02 0.14779860964E+02 0.14710704388E+02 0.14580590504E+02 0.14401977918E+02
 0.14188538242E+02 0.13953224931E+02 0.13706740220E+02 0.13456540205E+02 0.13206479298E+02
 0.12957147130E+02 0.12706868358E+02 0.12453212705E+02 0.12194724892E+02 0.11932485523E+02
 0.11671111292E+02 0.11418922187E+02 0.11187217456E+02 0.10988835476E+02 0.10836338039E+02
 0.10740204470E+02 0.10707355065E+02 0.10740204470E+02 0.10836338039E+02 0.10988835477E+02
 0.11187217456E+02 0.11418922187E+02 0.11671111292E+02 0.11932485523E+02 0.12194724892E+02
 0.11519605102E+02 0.11797216658E+02 0.12083362239E+02 0.12379171643E+02 0.12683799075E+02
 0.12993302225E+02 0.13300121628E+02 0.13593251082E+02 0.13859074022E+02 0.14082760489E+02
 0.14250069810E+02 0.14349368957E+02 0.14372619422E+02 0.14309218545E+02 0.14155718174E+02
 0.13923837770E+02 0.13639497939E+02 0.13339230931E+02 0.13064525730E+02 0.12855021035E+02
 0.12741756045E+02 0.12741756045E+02 0.12855021035E+02 0.13064525730E+02 0.13339230931E+02
 0.13639497939E+02 0.13923837770E+02 0.14155718174E+02 0.14309218545E+02 0.14372619421E+02
 0.14349368956E+02 0.14250069810E+02 0.14082760489E+02 0.13859074022E+02 0.13593251082E+02
 0.13300121628E+02 0.12993302225E+02 0.12683799075E+02 0.12379171643E+02 0.12083362239E+02
 0.11797216658E+02 0.11519605102E+02 0.11248918742E+02 0.10984606702E+02 0.10728381592E+02
 0.10484792812E+02 0.10261037276E+02 0.10066089685E+02 0.99094073032E+01 0.97995338192E+01
 0.97428841860E+01 0.97428841860E+01 0.97995338192E+01 0.99094073032E+01 0.10066089685E+02
 0.10261037276E+02 0.10484792812E+02 0.10728381592E+02 0.10984606702E+02 0.11248918741E+02
 0.10651202603E+02 0.10960556333E+02 0.11287459704E+02 0.11631235608E+02 0.11988405143E+02
 0.12351974082E+02 0.12711369838E+02 0.13053057624E+02 0.13361752822E+02 0.13622071311E+02
 0.13820419593E+02 0.13946862147E+02 0.13991678310E+02 0.13944748692E+02 0.13809042791E+02
 0.13602158729E+02 0.13354043676E+02 0.13102460916E+02 0.12886871172E+02 0.12741756045E+02
 0.12690608070E+02 0.12741756045E+02 0.12886871172E+02 0.13102460916E+02 0.13354043676E+02
 0.13602158729E+02 0.13809042791E+02 0.13944748692E+02 0.13991678310E+02 0.13946862146E+02
 0.13820419593E+02 0.13622071310E+02 0.13361752822E+02 0.13053057625E+02 0.12711369839E+02
 0.12351974082E+02 0.11988405144E+02 0.11631235608E+02 0.11287459704E+02 0.10960556333E+02
 0.10651202603E+02 0.10358477253E+02 0.10081274580E+02 0.98195873371E+01 0.95753468854E+01
 0.93526358116E+01 0.91572742427E+01 0.89959556235E+01 0.88752021834E+01 0.88003968393E+01
 0.87750555336E+01 0.88003968393E+01 0.88752021834E+01 0.89959556235E+01 0.91572742426E+01
 0.93526358115E+01 0.95753468853E+01 0.98195873370E+01 0.10081274580E+02 0.10358477253E+02
 0.98647547082E+01 0.10209487852E+02 0.10578018543E+02 0.10967737635E+02 0.11372779944E+02
 0.11783701991E+02 0.12187818530E+02 0.12570164975E+02 0.12914948250E+02 0.13207286435E+02
 0.13435018187E+02 0.13589350017E+02 0.13658298549E+02 0.13636063427E+02 0.13530867069E+02
 0.13364070581E+02 0.13166939316E+02 0.12975559501E+02 0.12824708402E+02 0.12741756045E+02
 0.12741756045E+02 0.12824708402E+02 0.12975559501E+02 0.13166939317E+02 0.13364070581E+02
 0.13530867069E+02 0.13636063427E+02 0.13658298549E+02 0.13589350017E+02 0.13435018187E+02
 0.13207286435E+02 0.12914948250E+02 0.12570164975E+02 0.12187818530E+02 0.11783701991E+02
 0.11372779944E+02 0.10967737635E+02 0.10578018543E+02 0.10209487852E+02 0.98647547082E+01
 0.95440557632E+01 0.92464775742E+01 0.89712141947E+01 0.87185527747E+01 0.84903670971E+01
 0.82900546048E+01 0.81220205257E+01 0.79909262988E+01 0.79009368530E+01 0.78551306517E+01
 0.78551306517E+01 0.79009368530E+01 0.79909262987E+01 0.81220205256E+01 0.82900546047E+01
 0.84903670969E+01 0.87185527746E+01 0.89712141946E+01 0.92464775742E+01 0.95440557632E+01
 0.91685783990E+01 0.95490193783E+01 0.99572511676E+01 0.10388922579E+02 0.10836283952E+02
 0.11288206613E+02 0.11730829156E+02 0.12148742108E+02 0.12526531569E+02 0.12850461507E+02
 0.13110077785E+02 0.13296171335E+02 0.13397015941E+02 0.13411259629E+02 0.13350499074E+02
 0.13237385502E+02 0.13101783890E+02 0.12975559501E+02 0.12886871172E+02 0.12855021035E+02
 0.12886871172E+02 0.12975559501E+02 0.13101783891E+02 0.13237385502E+02 0.13350499074E+02
 0.13411259629E+02 0.13397015941E+02 0.13296171335E+02 0.13110077784E+02 0.12850461507E+02
 0.12526531569E+02 0.12148742108E+02 0.11730829155E+02 0.11288206613E+02 0.10836283952E+02
 0.10388922579E+02 0.99572511676E+01 0.95490193782E+01 0.91685783990E+01 0.88174517176E+01
 0.84953309894E+01 0.82012363360E+01 0.79345505281E+01 0.76956891371E+01 0.74862932324E+01
 0.73089856446E+01 0.71668561885E+01 0.70628863901E+01 0.69994802310E+01 0.69781704242E+01
 0.69994802309E+01 0.70628863900E+01 0.71668561883E+01 0.73089856445E+01 0.74862932323E+01
 0.76956891370E+01 0.79345505281E+01 0.82012363360E+01 0.84953309895E+01 0.88174517176E+01
 0.85642422910E+01 0.89786849875E+01 0.94234047436E+01 0.98927062780E+01 0.10377576019E+02
 0.10865966819E+02 0.11343646060E+02 0.11795476099E+02 0.12206924713E+02 0.12565585954E+02
 0.12862376360E+02 0.13087038959E+02 0.13229955665E+02 0.13292682961E+02 0.13288001209E+02
 0.13237385502E+02 0.13166939316E+02 0.13102460916E+02 0.13064525730E+02 0.13064525730E+02
 0.13102460916E+02 0.13166939317E+02 0.13237385502E+02 0.13288001209E+02 0.13292682961E+02
 0.13229955665E+02 0.13087038959E+02 0.12862376360E+02 0.12565585954E+02 0.12206924712E+02
 0.11795476099E+02 0.11343646060E+02 0.10865966819E+02 0.10377576019E+02 0.98927062779E+01
 0.94234047435E+01 0.89786849875E+01 0.85642422909E+01 0.81827496785E+01 0.78346248221E+01
 0.75190529994E+01 0.72350010691E+01 0.69819811994E+01 0.67604180543E+01 0.65716093743E+01
 0.64173966935E+01 0.62997297786E+01 0.62202918457E+01 0.61802713669E+01 0.61802713669E+01
 0.62202918456E+01 0.62997297785E+01 0.64173966933E+01 0.65716093743E+01 0.67604180543E+01
 0.69819811994E+01 0.72350010692E+01 0.75190529995E+01 0.78346248222E+01 0.81827496786E+01
 0.80490452498E+01 0.84951331104E+01 0.89732793798E+01 0.94769228636E+01 0.99963832522E+01
 0.10519321509E+02 0.11031683606E+02 0.11518970941E+02 0.11967630617E+02 0.12366361667E+02
 0.12706729465E+02 0.12977988828E+02 0.13172444612E+02 0.13292682961E+02 0.13350499074E+02
 0.13364070581E+02 0.13354043676E+02 0.13339230931E+02 0.13332730766E+02 0.13339230931E+02
 0.13354043676E+02 0.13364070581E+02 0.13350499074E+02 0.13292682961E+02 0.13172444612E+02
 0.12977988828E+02 0.12706729465E+02 0.12366361667E+02 0.11967630617E+02 0.11518970941E+02
 0.11031683606E+02 0.10519321509E+02 0.99963832521E+01 0.94769228635E+01 0.89732793798E+01
 0.84951331104E+01 0.80490452498E+01 0.76385399465E+01 0.72646678320E+01 0.69268815424E+01
 0.66239892286E+01 0.63549526244E+01 0.61193646940E+01 0.59175578259E+01 0.57504159548E+01
 0.56190452216E+01 0.55244663789E+01 0.54674312843E+01 0.54483735035E+01 0.54674312842E+01
 0.55244663789E+01 0.56190452216E+01 0.57504159548E+01 0.59175578260E+01 0.61193646941E+01
 0.63549526245E+01 0.66239892287E+01 0.69268815425E+01 0.72646678320E+01 0.76385399466E+01
 0.76185767508E+01 0.80944896283E+01 0.86042224902E+01 0.91407834204E+01 0.96942817210E+01
 0.10252478751E+02 0.10801741278E+02 0.11328230594E+02 0.11819128592E+02 0.12263719115E+02
 0.12653589874E+02 0.12977988828E+02 0.13229955665E+02 0.13411259629E+02 0.13530867069E+02
 0.13602158729E+02 0.13639497939E+02 0.13654804917E+02 0.13654804917E+02 0.13639497939E+02
 0.13602158729E+02 0.13530867069E+02 0.13411259629E+02 0.13229955665E+02 0.12977988828E+02
 0.12653589874E+02 0.12263719115E+02 0.11819128592E+02 0.11328230594E+02 0.10801741278E+02
 0.10252478751E+02 0.96942817209E+01 0.91407834204E+01 0.86042224902E+01 0.80944896283E+01
 0.76185767508E+01 0.71805150449E+01 0.67817794752E+01 0.64220310222E+01 0.60999953175E+01
 0.58142595874E+01 0.55638156979E+01 0.53482727353E+01 0.51677758367E+01 0.50227565837E+01
 0.49136694691E+01 0.48408301252E+01 0.48043884046E+01 0.48043884046E+01 0.48408301252E+01
 0.49136694691E+01 0.50227565837E+01 0.51677758368E+01 0.53482727354E+01 0.55638156980E+01
 0.58142595875E+01 0.60999953176E+01 0.64220310223E+01 0.67817794752E+01 0.71805150449E+01
 0.72687530310E+01 0.77739733359E+01 0.83151963482E+01 0.88852994967E+01 0.94744303677E+01
 0.10070581256E+02 0.10660495418E+02 0.11230738513E+02 0.11768750382E+02 0.12263719115E+02
 0.12706729465E+02 0.13087038959E+02 0.13397015941E+02 0.13636063426E+02 0.13809042791E+02
 0.13923837770E+02 0.13988639856E+02 0.14009500954E+02 0.13988639856E+02 0.13923837770E+02
 0.13809042791E+02 0.13636063427E+02 0.13397015941E+02 0.13087038959E+02 0.12706729465E+02
 0.12263719115E+02 0.11768750382E+02 0.11230738513E+02 0.10660495418E+02 0.10070581256E+02
 0.94744303677E+01 0.88852994967E+01 0.83151963482E+01 0.77739733359E+01 0.72687530310E+01
 0.68037864496E+01 0.63807488543E+01 0.59993774904E+01 0.56582804578E+01 0.53557176394E+01
 0.50901824790E+01 0.48606902301E+01 0.46667797636E+01 0.45083261388E+01 0.43853054991E+01
 0.42976361643E+01 0.42451519324E+01 0.42276813666E+01 0.42451519324E+01 0.42976361644E+01
 0.43853054991E+01 0.45083261389E+01 0.46667797637E+01 0.48606902302E+01 0.50901824791E+01
 0.53557176395E+01 0.56582804578E+01 0.59993774904E+01 0.63807488542E+01 0.68037864496E+01
 0.69969698567E+01 0.75325312972E+01 0.81068410940E+01 0.87127687105E+01 0.93405343310E+01
 0.99782639660E+01 0.10612818882E+02 0.11230738513E+02 0.11819128591E+02 0.12366361667E+02