       N       E                     dE             d eps       ncg     rms          rms(c)
DAV:   1     0.677702071879E+01    0.67770E+01   -0.32967E+03   752   0.774E+02
DAV:   2    -0.107804991097E+02   -0.17558E+02   -0.17029E+02  1184   0.823E+01
DAV:   3    -0.110162956344E+02   -0.23580E+00   -0.23580E+00   928   0.120E+01
DAV:   4    -0.110174613001E+02   -0.11657E-02   -0.11657E-02  1200   0.950E-01
DAV:   5    -0.110174621268E+02   -0.82667E-06   -0.82667E-06  1000   0.243E-02    0.475E+00
DAV:   6    -0.109015033378E+02    0.11596E+00   -0.75725E-02   896   0.144E+00    0.290E+00
DAV:   7    -0.108478795368E+02    0.53624E-01   -0.14561E-01   944   0.213E+00    0.174E-01
DAV:   8    -0.108489806487E+02   -0.11011E-02   -0.38578E-03   872   0.468E-01    0.737E-02
DAV:   9    -0.108491773451E+02   -0.19670E-03   -0.19416E-04  1120   0.110E-01    0.554E-02
DAV:  10    -0.108492035002E+02   -0.26155E-04   -0.31393E-05   896   0.419E-02    0.896E-03
DAV:  11    -0.108492032338E+02    0.26634E-06   -0.54524E-07  1184   0.521E-03    0.218E-03
DAV:  12    -0.108492035825E+02   -0.34863E-06   -0.59211E-07   896   0.613E-03    0.914E-04
DAV:  13    -0.108492035965E+02   -0.14004E-07   -0.20559E-09  1144   0.389E-04    0.200E-04
DAV:  14    -0.108492036002E+02   -0.36870E-08   -0.26791E-10   912   0.146E-04    0.539E-05
DAV:  15    -0.108492036014E+02   -0.12642E-08   -0.21640E-11   720   0.354E-05    0.111E-05
DAV:  16    -0.108492036010E+02    0.40018E-09   -0.87061E-13   584   0.973E-06    0.311E-06
DAV:  17    -0.108492036009E+02    0.15245E-09   -0.66880E-13   552   0.369E-06    0.104E-06
DAV:  18    -0.108492036009E+02   -0.46157E-10    0.13945E-12   448   0.148E-06
   1 F= -.10849204E+02 E0= -.10849204E+02  d E =-.182049E-19
