 vasp.6.4.2 20Jul23 (build Oct 16 2024 22:45:58) complex                        
  
 executed on             LinuxIFC date 2025.01.29  08:36:23
 running    4 mpi-ranks, on    1 nodes
 distrk:  each k-point on    4 cores,    1 groups
 distr:  one band on NCORE=   1 cores,    4 groups


--------------------------------------------------------------------------------------------------------


 INCAR:
   SYSTEM = Si FCC
   PREC = Accurate
   EDIFF = 1E-10
   EDIFFG = -1E-5
   ISMEAR = 0
   SIGMA = 0.03
   GGA = PE
   ENCUT = 520
   NSW = 0
   IBRION = -1
   ISIF = 0
   LWAVE = .FALSE.

 POTCAR:    PAW_PBE Si 05Jan2001                  
 POTCAR:    PAW_PBE Si 05Jan2001                  
   SHA256 =  79d9987ad8750f624c4d6acb2a16d13abf6a777132adc04dc6c8399be72b42bb Si/POTCAR             
   COPYR  = (c) Copyright 05Jan2001 Georg Kresse                                                    
   COPYR  = This file is part of the software VASP. Any use, copying, and all other rights are regul
   COPYR  = If you do not have a valid VASP license, you may not use, copy or distribute this file. 
   VRHFIN =Si: s2p2                                                                                 
   LEXCH  = PE                                                                                      
   EATOM  =   103.0669 eV,    7.5752 Ry                                                             
                                                                                                    
   TITEL  = PAW_PBE Si 05Jan2001                                                                    
   LULTRA =        F    use ultrasoft PP ?                                                          
   IUNSCR =        1    unscreen: 0-lin 1-nonlin 2-no                                               
   RPACOR =    1.500    partial core radius                                                         
   POMASS =   28.085; ZVAL   =    4.000    mass and valenz                                          
   RCORE  =    1.900    outmost cutoff radius                                                       
   RWIGS  =    2.480; RWIGS  =    1.312    wigner-seitz radius (au A)                               
   ENMAX  =  245.345; ENMIN  =  184.009 eV                                                          
   ICORE  =        2    local potential                                                             
   LCOR   =        T    correct aug charges                                                         
   LPAW   =        T    paw PP                                                                      
   EAUG   =  322.069                                                                                
   DEXC   =    0.000                                                                                
   RMAX   =    1.950    core radius for proj-oper                                                   
   RAUG   =    1.300    factor for augmentation sphere                                              
   RDEP   =    1.993    radius for radial grids                                                     
   RDEPT  =    1.837    core radius for aug-charge                                                  
                                                                                                    
   Atomic configuration                                                                             
    6 entries                                                                                       
     n  l   j            E        occ.                                                              
     1  0  0.50     -1785.8828   2.0000                                                             
     2  0  0.50      -139.4969   2.0000                                                             
     2  1  1.50       -95.5546   6.0000                                                             
     3  0  0.50       -10.8127   2.0000                                                             
     3  1  0.50        -4.0811   2.0000                                                             
     3  2  1.50        -4.0817   0.0000                                                             
   Description                                                                                      
     l       E           TYP  RCUT    TYP  RCUT                                                     
     0    -10.8127223     23  1.900                                                                 
     0     -7.6451159     23  1.900                                                                 
     1     -4.0811372     23  1.900                                                                 
     1      2.4879257     23  1.900                                                                 
     2     -4.0817478      7  1.900                                                                 
  local pseudopotential read in
  partial core-charges read in
  partial kinetic energy density read in
  atomic valenz-charges read in
  non local Contribution for L=           0  read in
    real space projection operators read in
  non local Contribution for L=           0  read in
    real space projection operators read in
  non local Contribution for L=           1  read in
    real space projection operators read in
  non local Contribution for L=           1  read in
    real space projection operators read in
    PAW grid and wavefunctions read in
 
   number of l-projection  operators is LMAX  =           4
   number of lm-projection operators is LMMAX =           8
 
  PAW_PBE Si 05Jan2001                  :
 energy of atom  1       EATOM= -103.0669
 kinetic energy error for atom=    0.0005 (will be added to EATOM!!)
 
 
 POSCAR: Si [FCC,FCC,cF8]
  positions in direct lattice
  velocities in cartesian coordinates
 exchange correlation table for  LEXCH =        8
   RHO(1)=    0.500       N(1)  =     2000
   RHO(2)=  100.500       N(2)  =     4000

 VTST: version 4.1, (05/19/21)

 CHAIN: initializing optimizer
 
 OPT: Using VASP Dynamics algorithm
 CHAIN: Read ICHAIN            0
 
 POSCAR: Si [FCC,FCC,cF8]
  positions in direct lattice
  velocities in cartesian coordinates
 


--------------------------------------------------------------------------------------------------------


 ion  position               nearest neighbor table
   1  0.000  0.000  0.000-   2 2.37   2 2.37   2 2.37   2 2.37
   2  0.250  0.250  0.250-   1 2.37   1 2.37   1 2.37   1 2.37
 
  LATTYP: Found a face centered cubic cell.
 ALAT       =     5.4685839824
  
  Lattice vectors:
  
 A1 = (   0.0000000000,   2.7342919912,   2.7342919912)
 A2 = (   2.7342919912,   0.0000000000,   2.7342919912)
 A3 = (   2.7342919912,   2.7342919912,   0.0000000000)


Analysis of symmetry for initial positions (statically):
=====================================================================
 Subroutine PRICEL returns:
 Original cell was already a primitive cell.
 

 Routine SETGRP: Setting up the symmetry group for a 
 face centered cubic supercell.


 Subroutine GETGRP returns: Found 48 space group operations
 (whereof 24 operations were pure point group operations)
 out of a pool of 48 trial point group operations.


The static configuration has the point symmetry T_d .
 The point group associated with its full space group is O_h .


Analysis of symmetry for dynamics (positions and initial velocities):
=====================================================================
 Subroutine PRICEL returns:
 Original cell was already a primitive cell.
 

 Routine SETGRP: Setting up the symmetry group for a 
 face centered cubic supercell.


 Subroutine GETGRP returns: Found 48 space group operations
 (whereof 24 operations were pure point group operations)
 out of a pool of 48 trial point group operations.


The dynamic configuration has the point symmetry T_d .
 The point group associated with its full space group is O_h .


 Subroutine INISYM returns: Found 48 space group operations
 (whereof 24 operations are pure point group operations),
 and found     1 'primitive' translations


----------------------------------------------------------------------------------------

                                     Primitive cell                                     

  volume of cell :      40.8851

  direct lattice vectors                    reciprocal lattice vectors
     0.000000000  2.734291991  2.734291991    -0.182862694  0.182862694  0.182862694
     2.734291991  0.000000000  2.734291991     0.182862694 -0.182862694  0.182862694
     2.734291991  2.734291991  0.000000000     0.182862694  0.182862694 -0.182862694

  length of vectors
     3.866872817  3.866872817  3.866872817     0.316727477  0.316727477  0.316727477

  position of ions in fractional coordinates (direct lattice)
     0.000000000  0.000000000  0.000000000
     0.250000000  0.250000000  0.250000000

  ion indices of the primitive-cell ions
   primitive index   ion index
                 1           1
                 2           2

----------------------------------------------------------------------------------------

 
 
 KPOINTS: KPOINTS                                 

Automatic generation of k-mesh.
 Grid dimensions read from file:
 generate k-points for:   10   10   10

 Generating k-lattice:

  Cartesian coordinates                     Fractional coordinates (reciprocal lattice)
    -0.018286269  0.018286269  0.018286269     0.100000000  0.000000000  0.000000000
     0.018286269 -0.018286269  0.018286269     0.000000000  0.100000000  0.000000000
     0.018286269  0.018286269 -0.018286269     0.000000000  0.000000000  0.100000000

  Length of vectors
     0.031672748  0.031672748  0.031672748

  Shift w.r.t. Gamma in fractional coordinates (k-lattice)
     0.000000000  0.000000000  0.000000000

 
 Subroutine IBZKPT returns following result:
 ===========================================
 
 Found     47 irreducible k-points:
 
 Following reciprocal coordinates:
            Coordinates               Weight
  0.000000  0.000000  0.000000      1.000000
  0.100000  0.000000  0.000000      8.000000
  0.200000  0.000000  0.000000      8.000000
  0.300000  0.000000  0.000000      8.000000
  0.400000  0.000000  0.000000      8.000000
  0.500000  0.000000  0.000000      4.000000
  0.100000  0.100000  0.000000      6.000000
  0.200000  0.100000  0.000000     24.000000
  0.300000  0.100000  0.000000     24.000000
  0.400000  0.100000  0.000000     24.000000
  0.500000  0.100000  0.000000     24.000000
 -0.400000  0.100000  0.000000     24.000000
 -0.300000  0.100000  0.000000     24.000000
 -0.200000  0.100000  0.000000     24.000000
 -0.100000  0.100000  0.000000     12.000000
  0.200000  0.200000  0.000000      6.000000
  0.300000  0.200000  0.000000     24.000000
  0.400000  0.200000  0.000000     24.000000
  0.500000  0.200000  0.000000     24.000000
 -0.400000  0.200000  0.000000     24.000000
 -0.300000  0.200000  0.000000     24.000000
 -0.200000  0.200000  0.000000     12.000000
  0.300000  0.300000  0.000000      6.000000
  0.400000  0.300000  0.000000     24.000000
  0.500000  0.300000  0.000000     24.000000
 -0.400000  0.300000  0.000000     24.000000
 -0.300000  0.300000  0.000000     12.000000
  0.400000  0.400000  0.000000      6.000000
  0.500000  0.400000  0.000000     24.000000
 -0.400000  0.400000  0.000000     12.000000
  0.500000  0.500000  0.000000      3.000000
  0.300000  0.200000  0.100000     24.000000
  0.400000  0.200000  0.100000     48.000000
  0.500000  0.200000  0.100000     48.000000
 -0.400000  0.200000  0.100000     24.000000
  0.400000  0.300000  0.100000     24.000000
  0.500000  0.300000  0.100000     48.000000
 -0.400000  0.300000  0.100000     48.000000
 -0.300000  0.300000  0.100000     48.000000
 -0.200000  0.300000  0.100000     24.000000
  0.500000  0.400000  0.100000     24.000000
 -0.400000  0.400000  0.100000     48.000000
 -0.300000  0.400000  0.100000     24.000000
 -0.400000  0.500000  0.100000     12.000000
 -0.400000  0.400000  0.200000     24.000000
 -0.300000  0.400000  0.200000     24.000000
 -0.300000  0.500000  0.200000     12.000000
 
 Following cartesian coordinates:
            Coordinates               Weight
  0.000000  0.000000  0.000000      1.000000
 -0.018286  0.018286  0.018286      8.000000
 -0.036573  0.036573  0.036573      8.000000
 -0.054859  0.054859  0.054859      8.000000
 -0.073145  0.073145  0.073145      8.000000
 -0.091431  0.091431  0.091431      4.000000
  0.000000  0.000000  0.036573      6.000000
 -0.018286  0.018286  0.054859     24.000000
 -0.036573  0.036573  0.073145     24.000000
 -0.054859  0.054859  0.091431     24.000000
 -0.073145  0.073145  0.109718     24.000000
  0.091431 -0.091431 -0.054859     24.000000
  0.073145 -0.073145 -0.036573     24.000000
  0.054859 -0.054859 -0.018286     24.000000
  0.036573 -0.036573  0.000000     12.000000
  0.000000  0.000000  0.073145      6.000000
 -0.018286  0.018286  0.091431     24.000000
 -0.036573  0.036573  0.109718     24.000000
 -0.054859  0.054859  0.128004     24.000000
  0.109718 -0.109718 -0.036573     24.000000
  0.091431 -0.091431 -0.018286     24.000000
  0.073145 -0.073145  0.000000     12.000000
  0.000000  0.000000  0.109718      6.000000
 -0.018286  0.018286  0.128004     24.000000
 -0.036573  0.036573  0.146290     24.000000
  0.128004 -0.128004 -0.018286     24.000000
  0.109718 -0.109718  0.000000     12.000000
  0.000000  0.000000  0.146290      6.000000
 -0.018286  0.018286  0.164576     24.000000
  0.146290 -0.146290  0.000000     12.000000
  0.000000  0.000000  0.182863      3.000000
  0.000000  0.036573  0.073145     24.000000
 -0.018286  0.054859  0.091431     48.000000
 -0.036573  0.073145  0.109718     48.000000
  0.128004 -0.091431 -0.054859     24.000000
  0.000000  0.036573  0.109718     24.000000
 -0.018286  0.054859  0.128004     48.000000
  0.146290 -0.109718 -0.036573     48.000000
  0.128004 -0.091431 -0.018286     48.000000
  0.109718 -0.073145 -0.000000     24.000000
  0.000000  0.036573  0.146290     24.000000
  0.164576 -0.128004 -0.018286     48.000000
  0.146290 -0.109718  0.000000     24.000000
  0.182863 -0.146290 -0.000000     12.000000
  0.182863 -0.109718 -0.036573     24.000000
  0.164576 -0.091431 -0.018286     24.000000
  0.182863 -0.109718  0.000000     12.000000
 


--------------------------------------------------------------------------------------------------------




 Dimension of arrays:
   k-points           NKPTS =     47   k-points in BZ     NKDIM =     47   number of bands    NBANDS=      8
   number of dos      NEDOS =    301   number of ions     NIONS =      2
   non local maximal  LDIM  =      4   non local SUM 2l+1 LMDIM =      8
   total plane-waves  NPLWV =  27000
   max r-space proj   IRMAX =      1   max aug-charges    IRDMAX=  22277
   dimension x,y,z NGX =    30 NGY =   30 NGZ =   30
   dimension x,y,z NGXF=    60 NGYF=   60 NGZF=   60
   support grid    NGXF=    60 NGYF=   60 NGZF=   60
   ions per type =               2
   NGX,Y,Z   is equivalent  to a cutoff of  12.90, 12.90, 12.90 a.u.
   NGXF,Y,Z  is equivalent  to a cutoff of  25.80, 25.80, 25.80 a.u.

 SYSTEM =  Si FCC                                  
 POSCAR =  Si [FCC,FCC,cF8]                        

 Startparameter for this run:
   NWRITE =      2    write-flag & timer
   PREC   = accura    normal or accurate (medium, high low for compatibility)
   ISTART =      0    job   : 0-new  1-cont  2-samecut
   ICHARG =      2    charge: 1-file 2-atom 10-const
   ISPIN  =      1    spin polarized calculation?
   LNONCOLLINEAR =      F non collinear calculations
   LSORBIT =      F    spin-orbit coupling
   INIWAV =      1    electr: 0-lowe 1-rand  2-diag
   LASPH  =      F    aspherical Exc in radial PAW
 Electronic Relaxation 1
   ENCUT  =  520.0 eV  38.22 Ry    6.18 a.u.   7.19  7.19  7.19*2*pi/ulx,y,z
   ENINI  =  520.0     initial cutoff
   ENAUG  =  322.1 eV  augmentation charge cutoff
   NELM   =     60;   NELMIN=  2; NELMDL= -5     # of ELM steps 
   EDIFF  = 0.1E-09   stopping-criterion for ELM
   LREAL  =      F    real-space projection
   NLSPLINE    = F    spline interpolate recip. space projectors
   LCOMPAT=      F    compatible to vasp.4.4
   GGA_COMPAT  = T    GGA compatible to vasp.4.4-vasp.4.6
   LMAXPAW     = -100 max onsite density
   LMAXMIX     =    2 max onsite mixed and CHGCAR
   VOSKOWN=      0    Vosko Wilk Nusair interpolation
   ROPT   =    0.00000
 Ionic relaxation
   EDIFFG = -.1E-04   stopping-criterion for IOM
   NSW    =      0    number of steps for IOM
   NBLOCK =      1;   KBLOCK =      1    inner block; outer block 
   IBRION =     -1    ionic relax: 0-MD 1-quasi-New 2-CG
   NFREE  =      0    steps in history (QN), initial steepest desc. (CG)
   ISIF   =      0    stress and relaxation
   IWAVPR =     10    prediction:  0-non 1-charg 2-wave 3-comb
   ISYM   =      2    0-nonsym 1-usesym 2-fastsym
   LCORR  =      T    Harris-Foulkes like correction to forces

   POTIM  = 0.5000    time-step for ionic-motion
   TEIN   =    0.0    initial temperature
   TEBEG  =    0.0;   TEEND  =   0.0 temperature during run
   SMASS  =  -3.00    Nose mass-parameter (am)
   estimated Nose-frequenzy (Omega)   =  0.10E-29 period in steps = 0.13E+47 mass=  -0.342E-27a.u.
   SCALEE = 1.0000    scale energy and forces
   NPACO  =    256;   APACO  = 10.0  distance and # of slots for P.C.
   PSTRESS=    0.0 pullay stress

  Mass of Ions in am
   POMASS =  28.09
  Ionic Valenz
   ZVAL   =   4.00
  Atomic Wigner-Seitz radii
   RWIGS  =  -1.00
  virtual crystal weights 
   VCA    =   1.00
   NELECT =       8.0000    total number of electrons
   NUPDOWN=      -1.0000    fix difference up-down

 DOS related values:
   EMIN   =  10.00;   EMAX   =-10.00  energy-range for DOS
   EFERMI =   0.00;   METHOD = LEGACY      
   ISMEAR =     0;   SIGMA  =   0.03  broadening in eV -4-tet -1-fermi 0-gaus

 Electronic relaxation 2 (details)
   IALGO  =     38    algorithm
   LDIAG  =      T    sub-space diagonalisation (order eigenvalues)
   LSUBROT=      F    optimize rotation matrix (better conditioning)
   TURBO    =      0    0=normal 1=particle mesh
   IRESTART =      0    0=no restart 2=restart with 2 vectors
   NREBOOT  =      0    no. of reboots
   NMIN     =      0    reboot dimension
   EREF     =   0.00    reference energy to select bands
   IMIX   =      4    mixing-type and parameters
     AMIX     =   0.40;   BMIX     =  1.00
     AMIX_MAG =   1.60;   BMIX_MAG =  1.00
     AMIN     =   0.10
     WC   =   100.;   INIMIX=   1;  MIXPRE=   1;  MAXMIX= -45

 Intra band minimization:
   WEIMIN = 0.0000     energy-eigenvalue tresh-hold
   EBREAK =  0.31E-11  absolut break condition
   DEPER  =   0.30     relativ break condition  

   TIME   =   0.40     timestep for ELM

  volume/ion in A,a.u.               =      20.44       137.95
  Fermi-wavevector in a.u.,A,eV,Ry     =   0.950422  1.796038 12.290177  0.903302
  Thomas-Fermi vector in A             =   2.078798
 
 Write flags
   LWAVE        =      F    write WAVECAR
   LDOWNSAMPLE  =      F    k-point downsampling of WAVECAR
   LCHARG       =      T    write CHGCAR
   LVTOT        =      F    write LOCPOT, total local potential
   LVHAR        =      F    write LOCPOT, Hartree potential only
   LELF         =      F    write electronic localiz. function (ELF)
   LORBIT       =      0    0 simple, 1 ext, 2 COOP (PROOUT), +10 PAW based schemes


 Dipole corrections
   LMONO  =      F    monopole corrections only (constant potential shift)
   LDIPOL =      F    correct potential (dipole corrections)
   IDIPOL =      0    1-x, 2-y, 3-z, 4-all directions 
   EPSILON=  1.0000000 bulk dielectric constant

 Exchange correlation treatment:
   GGA     =    PE    GGA type
   LEXCH   =     8    internal setting for exchange type
   LIBXC   =     F    Libxc                    
   VOSKOWN =     0    Vosko Wilk Nusair interpolation
   LHFCALC =     F    Hartree Fock is set to
   LHFONE  =     F    Hartree Fock one center treatment
   AEXX    =    0.0000 exact exchange contribution

 Linear response parameters
   LEPSILON=     F    determine dielectric tensor
   LRPA    =     F    only Hartree local field effects (RPA)
   LNABLA  =     F    use nabla operator in PAW spheres
   LVEL    =     F    velocity operator in full k-point grid
   CSHIFT  =0.1000    complex shift for real part using Kramers Kronig
   OMEGAMAX=  -1.0    maximum frequency
   DEG_THRESHOLD= 0.2000000E-02 threshold for treating states as degnerate
   RTIME   =   -0.100 relaxation time in fs
  (WPLASMAI=    0.000 imaginary part of plasma frequency in eV, 0.658/RTIME)
   DFIELD  = 0.0000000 0.0000000 0.0000000 field for delta impulse in time
 
  Optional k-point grid parameters
   LKPOINTS_OPT  =     F    use optional k-point grid
   KPOINTS_OPT_MODE=     1    mode for optional k-point grid
 
 Orbital magnetization related:
   ORBITALMAG=     F  switch on orbital magnetization
   LCHIMAG   =     F  perturbation theory with respect to B field
   DQ        =  0.001000  dq finite difference perturbation B field
   LLRAUG    =     F  two centre corrections for induced B field
   LBONE     =     F  B-component reconstruction in AE one-centre
   LVGVCALC  =     T  calculate vGv susceptibility
   LVGVAPPL  =     F  apply vGv susceptibility instead of pGv for G=0

 Random number generation:
   RANDOM_GENERATOR = DEFAULT
   PCG_SEED         = not used


--------------------------------------------------------------------------------------------------------


 Static calculation
 charge density and potential will be updated during run
 non-spin polarized calculation
 Variant of blocked Davidson
 Davidson routine will perform the subspace rotation
 perform sub-space diagonalisation
    after iterative eigenvector-optimisation
 modified Broyden-mixing scheme, WC =      100.0
 initial mixing is a Kerker type mixing with AMIX =  0.4000 and BMIX =      1.0000
 Hartree-type preconditioning will be used
 using additional bands            4
 reciprocal scheme for non local part
 use partial core corrections
 calculate Harris-corrections to forces 
   (improved forces if not selfconsistent)
 use gradient corrections 
 use of overlap-Matrix (Vanderbilt PP)
 Gauss-broadening in eV      SIGMA  =   0.03


--------------------------------------------------------------------------------------------------------


  energy-cutoff  :      520.00
  volume of cell :       40.89
      direct lattice vectors                 reciprocal lattice vectors
     0.000000000  2.734291991  2.734291991    -0.182862694  0.182862694  0.182862694
     2.734291991  0.000000000  2.734291991     0.182862694 -0.182862694  0.182862694
     2.734291991  2.734291991  0.000000000     0.182862694  0.182862694 -0.182862694

  length of vectors
     3.866872817  3.866872817  3.866872817     0.316727477  0.316727477  0.316727477


 
 k-points in units of 2pi/SCALE and weight: KPOINTS                                 
   0.00000000  0.00000000  0.00000000       0.001
  -0.01828627  0.01828627  0.01828627       0.008
  -0.03657254  0.03657254  0.03657254       0.008
  -0.05485881  0.05485881  0.05485881       0.008
  -0.07314508  0.07314508  0.07314508       0.008
  -0.09143135  0.09143135  0.09143135       0.004
   0.00000000  0.00000000  0.03657254       0.006
  -0.01828627  0.01828627  0.05485881       0.024
  -0.03657254  0.03657254  0.07314508       0.024
  -0.05485881  0.05485881  0.09143135       0.024
  -0.07314508  0.07314508  0.10971762       0.024
   0.09143135 -0.09143135 -0.05485881       0.024
   0.07314508 -0.07314508 -0.03657254       0.024
   0.05485881 -0.05485881 -0.01828627       0.024
   0.03657254 -0.03657254  0.00000000       0.012
   0.00000000  0.00000000  0.07314508       0.006
  -0.01828627  0.01828627  0.09143135       0.024
  -0.03657254  0.03657254  0.10971762       0.024
  -0.05485881  0.05485881  0.12800389       0.024
   0.10971762 -0.10971762 -0.03657254       0.024
   0.09143135 -0.09143135 -0.01828627       0.024
   0.07314508 -0.07314508  0.00000000       0.012
   0.00000000  0.00000000  0.10971762       0.006
  -0.01828627  0.01828627  0.12800389       0.024
  -0.03657254  0.03657254  0.14629016       0.024
   0.12800389 -0.12800389 -0.01828627       0.024
   0.10971762 -0.10971762  0.00000000       0.012
   0.00000000  0.00000000  0.14629016       0.006
  -0.01828627  0.01828627  0.16457642       0.024
   0.14629016 -0.14629016  0.00000000       0.012
   0.00000000  0.00000000  0.18286269       0.003
   0.00000000  0.03657254  0.07314508       0.024
  -0.01828627  0.05485881  0.09143135       0.048
  -0.03657254  0.07314508  0.10971762       0.048
   0.12800389 -0.09143135 -0.05485881       0.024
   0.00000000  0.03657254  0.10971762       0.024
  -0.01828627  0.05485881  0.12800389       0.048
   0.14629016 -0.10971762 -0.03657254       0.048
   0.12800389 -0.09143135 -0.01828627       0.048
   0.10971762 -0.07314508 -0.00000000       0.024
   0.00000000  0.03657254  0.14629016       0.024
   0.16457642 -0.12800389 -0.01828627       0.048
   0.14629016 -0.10971762  0.00000000       0.024
   0.18286269 -0.14629016 -0.00000000       0.012
   0.18286269 -0.10971762 -0.03657254       0.024
   0.16457642 -0.09143135 -0.01828627       0.024
   0.18286269 -0.10971762  0.00000000       0.012
 
 k-points in reciprocal lattice and weights: KPOINTS                                 
   0.00000000  0.00000000  0.00000000       0.001
   0.10000000  0.00000000  0.00000000       0.008
   0.20000000  0.00000000  0.00000000       0.008
   0.30000000  0.00000000  0.00000000       0.008
   0.40000000  0.00000000  0.00000000       0.008
   0.50000000  0.00000000  0.00000000       0.004
   0.10000000  0.10000000  0.00000000       0.006
   0.20000000  0.10000000  0.00000000       0.024
   0.30000000  0.10000000  0.00000000       0.024
   0.40000000  0.10000000  0.00000000       0.024
   0.50000000  0.10000000  0.00000000       0.024
  -0.40000000  0.10000000  0.00000000       0.024
  -0.30000000  0.10000000  0.00000000       0.024
  -0.20000000  0.10000000  0.00000000       0.024
  -0.10000000  0.10000000  0.00000000       0.012
   0.20000000  0.20000000  0.00000000       0.006
   0.30000000  0.20000000  0.00000000       0.024
   0.40000000  0.20000000  0.00000000       0.024
   0.50000000  0.20000000  0.00000000       0.024
  -0.40000000  0.20000000  0.00000000       0.024
  -0.30000000  0.20000000  0.00000000       0.024
  -0.20000000  0.20000000  0.00000000       0.012
   0.30000000  0.30000000  0.00000000       0.006
   0.40000000  0.30000000  0.00000000       0.024
   0.50000000  0.30000000  0.00000000       0.024
  -0.40000000  0.30000000  0.00000000       0.024
  -0.30000000  0.30000000  0.00000000       0.012
   0.40000000  0.40000000  0.00000000       0.006
   0.50000000  0.40000000  0.00000000       0.024
  -0.40000000  0.40000000  0.00000000       0.012
   0.50000000  0.50000000  0.00000000       0.003
   0.30000000  0.20000000  0.10000000       0.024
   0.40000000  0.20000000  0.10000000       0.048
   0.50000000  0.20000000  0.10000000       0.048
  -0.40000000  0.20000000  0.10000000       0.024
   0.40000000  0.30000000  0.10000000       0.024
   0.50000000  0.30000000  0.10000000       0.048
  -0.40000000  0.30000000  0.10000000       0.048
  -0.30000000  0.30000000  0.10000000       0.048
  -0.20000000  0.30000000  0.10000000       0.024
   0.50000000  0.40000000  0.10000000       0.024
  -0.40000000  0.40000000  0.10000000       0.048
  -0.30000000  0.40000000  0.10000000       0.024
  -0.40000000  0.50000000  0.10000000       0.012
  -0.40000000  0.40000000  0.20000000       0.024
  -0.30000000  0.40000000  0.20000000       0.024
  -0.30000000  0.50000000  0.20000000       0.012
 
 position of ions in fractional coordinates (direct lattice) 
   0.00000000  0.00000000  0.00000000
   0.25000000  0.25000000  0.25000000
 
 position of ions in cartesian coordinates  (Angst):
   0.00000000  0.00000000  0.00000000
   1.36714600  1.36714600  1.36714600
 


--------------------------------------------------------------------------------------------------------


 k-point   1 :   0.0000 0.0000 0.0000  plane waves:    1067
 k-point   2 :   0.1000 0.0000 0.0000  plane waves:    1097
 k-point   3 :   0.2000 0.0000 0.0000  plane waves:    1098
 k-point   4 :   0.3000 0.0000 0.0000  plane waves:    1089
 k-point   5 :   0.4000 0.0000 0.0000  plane waves:    1101
 k-point   6 :   0.5000 0.0000 0.0000  plane waves:    1104
 k-point   7 :   0.1000 0.1000 0.0000  plane waves:    1098
 k-point   8 :   0.2000 0.1000 0.0000  plane waves:    1108
 k-point   9 :   0.3000 0.1000 0.0000  plane waves:    1094
 k-point  10 :   0.4000 0.1000 0.0000  plane waves:    1105
 k-point  11 :   0.5000 0.1000 0.0000  plane waves:    1105
 k-point  12 :  -0.4000 0.1000 0.0000  plane waves:    1103
 k-point  13 :  -0.3000 0.1000 0.0000  plane waves:    1101
 k-point  14 :  -0.2000 0.1000 0.0000  plane waves:    1094
 k-point  15 :  -0.1000 0.1000 0.0000  plane waves:    1109
 k-point  16 :   0.2000 0.2000 0.0000  plane waves:    1106
 k-point  17 :   0.3000 0.2000 0.0000  plane waves:    1089
 k-point  18 :   0.4000 0.2000 0.0000  plane waves:    1097
 k-point  19 :   0.5000 0.2000 0.0000  plane waves:    1103
 k-point  20 :  -0.4000 0.2000 0.0000  plane waves:    1114
 k-point  21 :  -0.3000 0.2000 0.0000  plane waves:    1109
 k-point  22 :  -0.2000 0.2000 0.0000  plane waves:    1093
 k-point  23 :   0.3000 0.3000 0.0000  plane waves:    1094
 k-point  24 :   0.4000 0.3000 0.0000  plane waves:    1100
 k-point  25 :   0.5000 0.3000 0.0000  plane waves:    1102
 k-point  26 :  -0.4000 0.3000 0.0000  plane waves:    1106
 k-point  27 :  -0.3000 0.3000 0.0000  plane waves:    1113
 k-point  28 :   0.4000 0.4000 0.0000  plane waves:    1094
 k-point  29 :   0.5000 0.4000 0.0000  plane waves:    1106
 k-point  30 :  -0.4000 0.4000 0.0000  plane waves:    1105
 k-point  31 :   0.5000 0.5000 0.0000  plane waves:    1106
 k-point  32 :   0.3000 0.2000 0.1000  plane waves:    1098
 k-point  33 :   0.4000 0.2000 0.1000  plane waves:    1093
 k-point  34 :   0.5000 0.2000 0.1000  plane waves:    1100
 k-point  35 :  -0.4000 0.2000 0.1000  plane waves:    1108
 k-point  36 :   0.4000 0.3000 0.1000  plane waves:    1086
 k-point  37 :   0.5000 0.3000 0.1000  plane waves:    1093
 k-point  38 :  -0.4000 0.3000 0.1000  plane waves:    1101
 k-point  39 :  -0.3000 0.3000 0.1000  plane waves:    1102
 k-point  40 :  -0.2000 0.3000 0.1000  plane waves:    1103
 k-point  41 :   0.5000 0.4000 0.1000  plane waves:    1094
 k-point  42 :  -0.4000 0.4000 0.1000  plane waves:    1106
 k-point  43 :  -0.3000 0.4000 0.1000  plane waves:    1104
 k-point  44 :  -0.4000 0.5000 0.1000  plane waves:    1102
 k-point  45 :  -0.4000 0.4000 0.2000  plane waves:    1099
 k-point  46 :  -0.3000 0.4000 0.2000  plane waves:    1104
 k-point  47 :  -0.3000 0.5000 0.2000  plane waves:    1104

 maximum and minimum number of plane-waves per node :      1114     1067

 maximum number of plane-waves:      1114
 maximum index in each direction: 
   IXMAX=    7   IYMAX=    7   IZMAX=    7
   IXMIN=   -7   IYMIN=   -7   IZMIN=   -7


 serial   3D FFT for wavefunctions
 parallel 3D FFT for charge:
    minimum data exchange during FFTs selected (reduces bandwidth)


 total amount of memory used by VASP MPI-rank0    40830. kBytes
=======================================================================

   base      :      30000. kBytes
   nonl-proj :       3392. kBytes
   fftplans  :       1986. kBytes
   grid      :       3744. kBytes
   one-center:          6. kBytes
   wavefun   :       1702. kBytes
 
     INWAV:  cpu time      0.0002: real time      0.0036
 Broyden mixing: mesh for mixing (old mesh)
   NGX = 15   NGY = 15   NGZ = 15
  (NGX  = 60   NGY  = 60   NGZ  = 60)
  gives a total of   3375 points

 initial charge density was supplied:
 charge density of overlapping atoms calculated
 number of electron       8.0000000 magnetization 
 keeping initial charge density in first step


--------------------------------------------------------------------------------------------------------


 Maximum index for augmentation-charges         5379 (set IRDMAX)


--------------------------------------------------------------------------------------------------------


 First call to EWALD:  gamma=   0.515
 Maximum number of real-space cells 3x 3x 3
 Maximum number of reciprocal cells 3x 3x 3

    FEWALD:  cpu time      0.0013: real time      0.0013


--------------------------------------- Ionic step        1  -------------------------------------------




--------------------------------------- Iteration      1(   1)  ---------------------------------------


    POTLOK:  cpu time      0.0306: real time      0.0344
    SETDIJ:  cpu time      0.0048: real time      0.0072
     EDDAV:  cpu time      0.4405: real time      0.4448
       DOS:  cpu time      0.0005: real time      0.0031
    --------------------------------------------
      LOOP:  cpu time      0.4764: real time      0.4895

 eigenvalue-minimisations  :   752
 total energy-change (2. order) : 0.6777021E+01  (-0.3296750E+03)
 number of electron       8.0000000 magnetization 
 augmentation part        8.0000000 magnetization 

 Free energy of the ion-electron system (eV)
  ---------------------------------------------------
  alpha Z        PSCENC =         3.29344055
  Ewald energy   TEWEN  =      -226.95087875
  -Hartree energ DENC   =       -11.32218615
  -exchange      EXHF   =         0.00000000
  -V(xc)+E(xc)   XCENC  =       -18.68487302
  PAW double counting   =       176.24759923     -141.06103558
  entropy T*S    EENTRO =        -0.00029862
  eigenvalues    EBANDS =        19.12255032
  atomic energy  EATOM  =       206.13270273
  Solvation  Ediel_sol  =         0.00000000
  ---------------------------------------------------
  free energy    TOTEN  =         6.77702072 eV

  energy without entropy =        6.77731934  energy(sigma->0) =        6.77717003


--------------------------------------------------------------------------------------------------------




--------------------------------------- Iteration      1(   2)  ---------------------------------------


     EDDAV:  cpu time      0.6205: real time      0.6247
       DOS:  cpu time      0.0002: real time      0.0002
    --------------------------------------------
      LOOP:  cpu time      0.6207: real time      0.6250

 eigenvalue-minimisations  :  1184
 total energy-change (2. order) :-0.1755752E+02  (-0.1702862E+02)
 number of electron       8.0000000 magnetization 
 augmentation part        8.0000000 magnetization 

 Free energy of the ion-electron system (eV)
  ---------------------------------------------------
  alpha Z        PSCENC =         3.29344055
  Ewald energy   TEWEN  =      -226.95087875
  -Hartree energ DENC   =       -11.32218615
  -exchange      EXHF   =         0.00000000
  -V(xc)+E(xc)   XCENC  =       -18.68487302
  PAW double counting   =       176.24759923     -141.06103558
  entropy T*S    EENTRO =        -0.00000000
  eigenvalues    EBANDS =         1.56473188
  atomic energy  EATOM  =       206.13270273
  Solvation  Ediel_sol  =         0.00000000
  ---------------------------------------------------
  free energy    TOTEN  =       -10.78049911 eV

  energy without entropy =      -10.78049911  energy(sigma->0) =      -10.78049911


--------------------------------------------------------------------------------------------------------




--------------------------------------- Iteration      1(   3)  ---------------------------------------


     EDDAV:  cpu time      0.5259: real time      0.5577
       DOS:  cpu time      0.0003: real time      0.0003
    --------------------------------------------
      LOOP:  cpu time      0.5262: real time      0.5580

 eigenvalue-minimisations  :   928
 total energy-change (2. order) :-0.2357965E+00  (-0.2357965E+00)
 number of electron       8.0000000 magnetization 
 augmentation part        8.0000000 magnetization 

 Free energy of the ion-electron system (eV)
  ---------------------------------------------------
  alpha Z        PSCENC =         3.29344055
  Ewald energy   TEWEN  =      -226.95087875
  -Hartree energ DENC   =       -11.32218615
  -exchange      EXHF   =         0.00000000
  -V(xc)+E(xc)   XCENC  =       -18.68487302
  PAW double counting   =       176.24759923     -141.06103558
  entropy T*S    EENTRO =        -0.00000000
  eigenvalues    EBANDS =         1.32893535
  atomic energy  EATOM  =       206.13270273
  Solvation  Ediel_sol  =         0.00000000
  ---------------------------------------------------
  free energy    TOTEN  =       -11.01629563 eV

  energy without entropy =      -11.01629563  energy(sigma->0) =      -11.01629563


--------------------------------------------------------------------------------------------------------




--------------------------------------- Iteration      1(   4)  ---------------------------------------


     EDDAV:  cpu time      0.6349: real time      0.6533
       DOS:  cpu time      0.0002: real time      0.0002
    --------------------------------------------
      LOOP:  cpu time      0.6351: real time      0.6535

 eigenvalue-minimisations  :  1200
 total energy-change (2. order) :-0.1165666E-02  (-0.1165666E-02)
 number of electron       8.0000000 magnetization 
 augmentation part        8.0000000 magnetization 

 Free energy of the ion-electron system (eV)
  ---------------------------------------------------
  alpha Z        PSCENC =         3.29344055
  Ewald energy   TEWEN  =      -226.95087875
  -Hartree energ DENC   =       -11.32218615
  -exchange      EXHF   =         0.00000000
  -V(xc)+E(xc)   XCENC  =       -18.68487302
  PAW double counting   =       176.24759923     -141.06103558
  entropy T*S    EENTRO =        -0.00000000
  eigenvalues    EBANDS =         1.32776969
  atomic energy  EATOM  =       206.13270273
  Solvation  Ediel_sol  =         0.00000000
  ---------------------------------------------------
  free energy    TOTEN  =       -11.01746130 eV

  energy without entropy =      -11.01746130  energy(sigma->0) =      -11.01746130


--------------------------------------------------------------------------------------------------------




--------------------------------------- Iteration      1(   5)  ---------------------------------------


     EDDAV:  cpu time      0.5472: real time      0.5574
       DOS:  cpu time      0.0002: real time      0.0002
    CHARGE:  cpu time      0.0401: real time      0.0403
    MIXING:  cpu time      0.0019: real time      0.0034
    --------------------------------------------
      LOOP:  cpu time      0.5895: real time      0.6014

 eigenvalue-minimisations  :  1000
 total energy-change (2. order) :-0.8266724E-06  (-0.8266723E-06)
 number of electron       8.0000001 magnetization 
 augmentation part       -0.4696049 magnetization 

 Broyden mixing:
  rms(total) = 0.47494E+00    rms(broyden)= 0.47494E+00
  rms(prec ) = 0.93064E+00
  weight for this iteration     100.00

 Free energy of the ion-electron system (eV)
  ---------------------------------------------------
  alpha Z        PSCENC =         3.29344055
  Ewald energy   TEWEN  =      -226.95087875
  -Hartree energ DENC   =       -11.32218615
  -exchange      EXHF   =         0.00000000
  -V(xc)+E(xc)   XCENC  =       -18.68487302
  PAW double counting   =       176.24759923     -141.06103558
  entropy T*S    EENTRO =        -0.00000000
  eigenvalues    EBANDS =         1.32776886
  atomic energy  EATOM  =       206.13270273
  Solvation  Ediel_sol  =         0.00000000
  ---------------------------------------------------
  free energy    TOTEN  =       -11.01746213 eV

  energy without entropy =      -11.01746213  energy(sigma->0) =      -11.01746213


--------------------------------------------------------------------------------------------------------




--------------------------------------- Iteration      1(   6)  ---------------------------------------


    POTLOK:  cpu time      0.0311: real time      0.0324
    SETDIJ:  cpu time      0.0022: real time      0.0022
     EDDAV:  cpu time      0.4973: real time      0.5001
       DOS:  cpu time      0.0002: real time      0.0002
    CHARGE:  cpu time      0.0387: real time      0.0389
    MIXING:  cpu time      0.0020: real time      0.0020
    --------------------------------------------
      LOOP:  cpu time      0.5716: real time      0.5759

 eigenvalue-minimisations  :   896
 total energy-change (2. order) : 0.1159588E+00  (-0.7572460E-02)
 number of electron       8.0000001 magnetization 
 augmentation part       -0.4640260 magnetization 

 Broyden mixing:
  rms(total) = 0.29006E+00    rms(broyden)= 0.29006E+00
  rms(prec ) = 0.55429E+00
  weight for this iteration     100.00

 eigenvalues of (default mixing * dielectric matrix)
  average eigenvalue GAMMA=   2.5600
  2.5600

 Free energy of the ion-electron system (eV)
  ---------------------------------------------------
  alpha Z        PSCENC =         3.29344055
  Ewald energy   TEWEN  =      -226.95087875
  -Hartree energ DENC   =       -12.78643075
  -exchange      EXHF   =         0.00000000
  -V(xc)+E(xc)   XCENC  =       -18.45476978
  PAW double counting   =       371.03058373     -335.94654915
  entropy T*S    EENTRO =        -0.00000000
  eigenvalues    EBANDS =         2.78039808
  atomic energy  EATOM  =       206.13270273
  Solvation  Ediel_sol  =         0.00000000
  ---------------------------------------------------
  free energy    TOTEN  =       -10.90150334 eV

  energy without entropy =      -10.90150334  energy(sigma->0) =      -10.90150334


--------------------------------------------------------------------------------------------------------




--------------------------------------- Iteration      1(   7)  ---------------------------------------


    POTLOK:  cpu time      0.0351: real time      0.0406
    SETDIJ:  cpu time      0.0020: real time      0.0020
     EDDAV:  cpu time      0.5147: real time      0.5177
       DOS:  cpu time      0.0002: real time      0.0002
    CHARGE:  cpu time      0.0389: real time      0.0391
    MIXING:  cpu time      0.0012: real time      0.0012
    --------------------------------------------
      LOOP:  cpu time      0.5921: real time      0.6007

 eigenvalue-minimisations  :   944
 total energy-change (2. order) : 0.5362380E-01  (-0.1456142E-01)
 number of electron       8.0000001 magnetization 
 augmentation part       -0.4572404 magnetization 

 Broyden mixing:
  rms(total) = 0.17362E-01    rms(broyden)= 0.17362E-01
  rms(prec ) = 0.40039E-01
  weight for this iteration     100.00

 eigenvalues of (default mixing * dielectric matrix)
  average eigenvalue GAMMA=   2.0647
  1.7518  2.3775

 Free energy of the ion-electron system (eV)
  ---------------------------------------------------
  alpha Z        PSCENC =         3.29344055
  Ewald energy   TEWEN  =      -226.95087875
  -Hartree energ DENC   =       -15.19041218
  -exchange      EXHF   =         0.00000000
  -V(xc)+E(xc)   XCENC  =       -18.06833413
  PAW double counting   =       832.38874920     -797.43684983
  entropy T*S    EENTRO =        -0.00000000
  eigenvalues    EBANDS =         4.98370287
  atomic energy  EATOM  =       206.13270273
  Solvation  Ediel_sol  =         0.00000000
  ---------------------------------------------------
  free energy    TOTEN  =       -10.84787954 eV

  energy without entropy =      -10.84787954  energy(sigma->0) =      -10.84787954


--------------------------------------------------------------------------------------------------------




--------------------------------------- Iteration      1(   8)  ---------------------------------------


    POTLOK:  cpu time      0.0325: real time      0.0333
    SETDIJ:  cpu time      0.0025: real time      0.0025
     EDDAV:  cpu time      0.4924: real time      0.4952
       DOS:  cpu time      0.0003: real time      0.0003
    CHARGE:  cpu time      0.0397: real time      0.0399
    MIXING:  cpu time      0.0014: real time      0.0014
    --------------------------------------------
      LOOP:  cpu time      0.5687: real time      0.5725

 eigenvalue-minimisations  :   872
 total energy-change (2. order) :-0.1101112E-02  (-0.3857784E-03)
 number of electron       8.0000001 magnetization 
 augmentation part       -0.4582004 magnetization 

 Broyden mixing:
  rms(total) = 0.73733E-02    rms(broyden)= 0.73733E-02
  rms(prec ) = 0.13124E-01
  weight for this iteration     100.00

 eigenvalues of (default mixing * dielectric matrix)
  average eigenvalue GAMMA=   2.2619
  2.8423  1.9718  1.9718

 Free energy of the ion-electron system (eV)
  ---------------------------------------------------
  alpha Z        PSCENC =         3.29344055
  Ewald energy   TEWEN  =      -226.95087875
  -Hartree energ DENC   =       -15.12038802
  -exchange      EXHF   =         0.00000000
  -V(xc)+E(xc)   XCENC  =       -18.06867688
  PAW double counting   =       838.38497396     -803.40671225
  entropy T*S    EENTRO =        -0.00000000
  eigenvalues    EBANDS =         4.88655801
  atomic energy  EATOM  =       206.13270273
  Solvation  Ediel_sol  =         0.00000000
  ---------------------------------------------------
  free energy    TOTEN  =       -10.84898065 eV

  energy without entropy =      -10.84898065  energy(sigma->0) =      -10.84898065


--------------------------------------------------------------------------------------------------------




--------------------------------------- Iteration      1(   9)  ---------------------------------------


    POTLOK:  cpu time      0.0331: real time      0.0494
    SETDIJ:  cpu time      0.0021: real time      0.0021
     EDDAV:  cpu time      0.5909: real time      0.5942
       DOS:  cpu time      0.0002: real time      0.0002
    CHARGE:  cpu time      0.0389: real time      0.0390
    MIXING:  cpu time      0.0011: real time      0.0011
    --------------------------------------------
      LOOP:  cpu time      0.6663: real time      0.6862

 eigenvalue-minimisations  :  1120
 total energy-change (2. order) :-0.1966963E-03  (-0.1941608E-04)
 number of electron       8.0000001 magnetization 
 augmentation part       -0.4583082 magnetization 

 Broyden mixing:
  rms(total) = 0.55447E-02    rms(broyden)= 0.55447E-02
  rms(prec ) = 0.64443E-02
  weight for this iteration     100.00

 eigenvalues of (default mixing * dielectric matrix)
  average eigenvalue GAMMA=   2.1196
  0.9513  2.5966  2.5966  2.3338

 Free energy of the ion-electron system (eV)
  ---------------------------------------------------
  alpha Z        PSCENC =         3.29344055
  Ewald energy   TEWEN  =      -226.95087875
  -Hartree energ DENC   =       -15.16475902
  -exchange      EXHF   =         0.00000000
  -V(xc)+E(xc)   XCENC  =       -18.06025003
  PAW double counting   =       839.82181613     -804.84127591
  entropy T*S    EENTRO =        -0.00000000
  eigenvalues    EBANDS =         4.92002696
  atomic energy  EATOM  =       206.13270273
  Solvation  Ediel_sol  =         0.00000000
  ---------------------------------------------------
  free energy    TOTEN  =       -10.84917735 eV

  energy without entropy =      -10.84917735  energy(sigma->0) =      -10.84917735


--------------------------------------------------------------------------------------------------------




--------------------------------------- Iteration      1(  10)  ---------------------------------------


    POTLOK:  cpu time      0.0302: real time      0.0747
    SETDIJ:  cpu time      0.0020: real time      0.0020
     EDDAV:  cpu time      0.4950: real time      0.4978
       DOS:  cpu time      0.0002: real time      0.0002
    CHARGE:  cpu time      0.0386: real time      0.0388
    MIXING:  cpu time      0.0012: real time      0.0013
    --------------------------------------------
      LOOP:  cpu time      0.5672: real time      0.6147

 eigenvalue-minimisations  :   896
 total energy-change (2. order) :-0.2615511E-04  (-0.3139319E-05)
 number of electron       8.0000001 magnetization 
 augmentation part       -0.4582850 magnetization 

 Broyden mixing:
  rms(total) = 0.89638E-03    rms(broyden)= 0.89638E-03
  rms(prec ) = 0.99018E-03
  weight for this iteration     100.00

 eigenvalues of (default mixing * dielectric matrix)
  average eigenvalue GAMMA=   1.9108
  2.9090  2.4340  2.0635  1.0737  1.0737

 Free energy of the ion-electron system (eV)
  ---------------------------------------------------
  alpha Z        PSCENC =         3.29344055
  Ewald energy   TEWEN  =      -226.95087875
  -Hartree energ DENC   =       -15.17257989
  -exchange      EXHF   =         0.00000000
  -V(xc)+E(xc)   XCENC  =       -18.05994240
  PAW double counting   =       828.79311318     -793.81245178
  entropy T*S    EENTRO =        -0.00000000
  eigenvalues    EBANDS =         4.92739286
  atomic energy  EATOM  =       206.13270273
  Solvation  Ediel_sol  =         0.00000000
  ---------------------------------------------------
  free energy    TOTEN  =       -10.84920350 eV

  energy without entropy =      -10.84920350  energy(sigma->0) =      -10.84920350


--------------------------------------------------------------------------------------------------------




--------------------------------------- Iteration      1(  11)  ---------------------------------------


    POTLOK:  cpu time      0.0300: real time      0.0312
    SETDIJ:  cpu time      0.0019: real time      0.0019
     EDDAV:  cpu time      0.6155: real time      0.6190
       DOS:  cpu time      0.0002: real time      0.0002
    CHARGE:  cpu time      0.0389: real time      0.0390
    MIXING:  cpu time      0.0012: real time      0.0012
    --------------------------------------------
      LOOP:  cpu time      0.6877: real time      0.6926

 eigenvalue-minimisations  :  1184
 total energy-change (2. order) : 0.2663392E-06  (-0.5452411E-07)
 number of electron       8.0000001 magnetization 
 augmentation part       -0.4583007 magnetization 

 Broyden mixing:
  rms(total) = 0.21829E-03    rms(broyden)= 0.21829E-03
  rms(prec ) = 0.44353E-03
  weight for this iteration     100.00

 eigenvalues of (default mixing * dielectric matrix)
  average eigenvalue GAMMA=   2.1420
  3.2326  2.9654  2.4659  2.2634  0.9775  0.9474

 Free energy of the ion-electron system (eV)
  ---------------------------------------------------
  alpha Z        PSCENC =         3.29344055
  Ewald energy   TEWEN  =      -226.95087875
  -Hartree energ DENC   =       -15.17125401
  -exchange      EXHF   =         0.00000000
  -V(xc)+E(xc)   XCENC  =       -18.06000585
  PAW double counting   =       830.06985849     -795.08876251
  entropy T*S    EENTRO =        -0.00000000
  eigenvalues    EBANDS =         4.92569611
  atomic energy  EATOM  =       206.13270273
  Solvation  Ediel_sol  =         0.00000000
  ---------------------------------------------------
  free energy    TOTEN  =       -10.84920323 eV

  energy without entropy =      -10.84920323  energy(sigma->0) =      -10.84920323


--------------------------------------------------------------------------------------------------------




--------------------------------------- Iteration      1(  12)  ---------------------------------------


    POTLOK:  cpu time      0.0299: real time      0.0334
    SETDIJ:  cpu time      0.0019: real time      0.0019
     EDDAV:  cpu time      0.4991: real time      0.5019
       DOS:  cpu time      0.0002: real time      0.0002
    CHARGE:  cpu time      0.0390: real time      0.0392
    MIXING:  cpu time      0.0013: real time      0.0013
    --------------------------------------------
      LOOP:  cpu time      0.5714: real time      0.5780

 eigenvalue-minimisations  :   896
 total energy-change (2. order) :-0.3486301E-06  (-0.5921079E-07)
 number of electron       8.0000001 magnetization 
 augmentation part       -0.4582895 magnetization 

 Broyden mixing:
  rms(total) = 0.91387E-04    rms(broyden)= 0.91387E-04
  rms(prec ) = 0.94394E-04
  weight for this iteration     100.00

 eigenvalues of (default mixing * dielectric matrix)
  average eigenvalue GAMMA=   1.9133
  3.2492  2.6929  2.4637  2.2472  0.9893  0.9893  0.7618

 Free energy of the ion-electron system (eV)
  ---------------------------------------------------
  alpha Z        PSCENC =         3.29344055
  Ewald energy   TEWEN  =      -226.95087875
  -Hartree energ DENC   =       -15.17288853
  -exchange      EXHF   =         0.00000000
  -V(xc)+E(xc)   XCENC  =       -18.05999682
  PAW double counting   =       829.99369573     -795.01262089
  entropy T*S    EENTRO =        -0.00000000
  eigenvalues    EBANDS =         4.92734241
  atomic energy  EATOM  =       206.13270273
  Solvation  Ediel_sol  =         0.00000000
  ---------------------------------------------------
  free energy    TOTEN  =       -10.84920358 eV

  energy without entropy =      -10.84920358  energy(sigma->0) =      -10.84920358


--------------------------------------------------------------------------------------------------------




--------------------------------------- Iteration      1(  13)  ---------------------------------------


    POTLOK:  cpu time      0.0334: real time      0.0342
    SETDIJ:  cpu time      0.0020: real time      0.0020
     EDDAV:  cpu time      0.6039: real time      0.6073
       DOS:  cpu time      0.0002: real time      0.0002
    CHARGE:  cpu time      0.0398: real time      0.0400
    MIXING:  cpu time      0.0016: real time      0.0016
    --------------------------------------------
      LOOP:  cpu time      0.6808: real time      0.6853

 eigenvalue-minimisations  :  1144
 total energy-change (2. order) :-0.1400394E-07  (-0.2055946E-09)
 number of electron       8.0000001 magnetization 
 augmentation part       -0.4582893 magnetization 

 Broyden mixing:
  rms(total) = 0.19989E-04    rms(broyden)= 0.19989E-04
  rms(prec ) = 0.22532E-04
  weight for this iteration     100.00

 eigenvalues of (default mixing * dielectric matrix)
  average eigenvalue GAMMA=   2.0098
  3.2661  2.8058  2.5369  2.2843  2.2843  0.9950  0.9532  0.9532

 Free energy of the ion-electron system (eV)
  ---------------------------------------------------
  alpha Z        PSCENC =         3.29344055
  Ewald energy   TEWEN  =      -226.95087875
  -Hartree energ DENC   =       -15.17287727
  -exchange      EXHF   =         0.00000000
  -V(xc)+E(xc)   XCENC  =       -18.05999271
  PAW double counting   =       829.86075209     -794.87968678
  entropy T*S    EENTRO =        -0.00000000
  eigenvalues    EBANDS =         4.92733653
  atomic energy  EATOM  =       206.13270273
  Solvation  Ediel_sol  =         0.00000000
  ---------------------------------------------------
  free energy    TOTEN  =       -10.84920360 eV

  energy without entropy =      -10.84920360  energy(sigma->0) =      -10.84920360


--------------------------------------------------------------------------------------------------------




--------------------------------------- Iteration      1(  14)  ---------------------------------------


    POTLOK:  cpu time      0.0308: real time      0.0319
    SETDIJ:  cpu time      0.0022: real time      0.0022
     EDDAV:  cpu time      0.5011: real time      0.5039
       DOS:  cpu time      0.0002: real time      0.0002
    CHARGE:  cpu time      0.0386: real time      0.0388
    MIXING:  cpu time      0.0013: real time      0.0013
    --------------------------------------------
      LOOP:  cpu time      0.5743: real time      0.5784

 eigenvalue-minimisations  :   912
 total energy-change (2. order) :-0.3686978E-08  (-0.2679073E-10)
 number of electron       8.0000001 magnetization 
 augmentation part       -0.4582895 magnetization 

 Broyden mixing:
  rms(total) = 0.53851E-05    rms(broyden)= 0.53851E-05
  rms(prec ) = 0.63926E-05
  weight for this iteration     100.00

 eigenvalues of (default mixing * dielectric matrix)
  average eigenvalue GAMMA=   1.9105
  3.2538  2.7500  2.5281  2.5281  2.2553  1.0405  0.9683  0.9350  0.9350

 Free energy of the ion-electron system (eV)
  ---------------------------------------------------
  alpha Z        PSCENC =         3.29344055
  Ewald energy   TEWEN  =      -226.95087875
  -Hartree energ DENC   =       -15.17285124
  -exchange      EXHF   =         0.00000000
  -V(xc)+E(xc)   XCENC  =       -18.05999133
  PAW double counting   =       829.90492553     -794.92385984
  entropy T*S    EENTRO =        -0.00000000
  eigenvalues    EBANDS =         4.92730874
  atomic energy  EATOM  =       206.13270273
  Solvation  Ediel_sol  =         0.00000000
  ---------------------------------------------------
  free energy    TOTEN  =       -10.84920360 eV

  energy without entropy =      -10.84920360  energy(sigma->0) =      -10.84920360


--------------------------------------------------------------------------------------------------------




--------------------------------------- Iteration      1(  15)  ---------------------------------------


    POTLOK:  cpu time      0.0383: real time      0.0557
    SETDIJ:  cpu time      0.0020: real time      0.0020
     EDDAV:  cpu time      0.4275: real time      0.4299
       DOS:  cpu time      0.0003: real time      0.0003
    CHARGE:  cpu time      0.0388: real time      0.0390
    MIXING:  cpu time      0.0014: real time      0.0014
    --------------------------------------------
      LOOP:  cpu time      0.5083: real time      0.5283

 eigenvalue-minimisations  :   720
 total energy-change (2. order) :-0.1264198E-08  (-0.2164009E-11)
 number of electron       8.0000001 magnetization 
 augmentation part       -0.4582897 magnetization 

 Broyden mixing:
  rms(total) = 0.11089E-05    rms(broyden)= 0.11089E-05
  rms(prec ) = 0.12176E-05
  weight for this iteration     100.00

 eigenvalues of (default mixing * dielectric matrix)
  average eigenvalue GAMMA=   1.9989
  3.2556  2.6748  2.6748  2.6080  2.6080  2.2539  1.0148  0.9965  0.9512  0.9512

 Free energy of the ion-electron system (eV)
  ---------------------------------------------------
  alpha Z        PSCENC =         3.29344055
  Ewald energy   TEWEN  =      -226.95087875
  -Hartree energ DENC   =       -15.17283375
  -exchange      EXHF   =         0.00000000
  -V(xc)+E(xc)   XCENC  =       -18.05999100
  PAW double counting   =       829.90628858     -794.92522305
  entropy T*S    EENTRO =        -0.00000000
  eigenvalues    EBANDS =         4.92729109
  atomic energy  EATOM  =       206.13270273
  Solvation  Ediel_sol  =         0.00000000
  ---------------------------------------------------
  free energy    TOTEN  =       -10.84920360 eV

  energy without entropy =      -10.84920360  energy(sigma->0) =      -10.84920360


--------------------------------------------------------------------------------------------------------




--------------------------------------- Iteration      1(  16)  ---------------------------------------


    POTLOK:  cpu time      0.0298: real time      0.0311
    SETDIJ:  cpu time      0.0019: real time      0.0019
     EDDAV:  cpu time      0.3712: real time      0.3733
       DOS:  cpu time      0.0002: real time      0.0002
    CHARGE:  cpu time      0.0386: real time      0.0388
    MIXING:  cpu time      0.0014: real time      0.0014
    --------------------------------------------
      LOOP:  cpu time      0.4431: real time      0.4468

 eigenvalue-minimisations  :   584
 total energy-change (2. order) : 0.4001777E-09  (-0.8706125E-13)
 number of electron       8.0000001 magnetization 
 augmentation part       -0.4582897 magnetization 

 Broyden mixing:
  rms(total) = 0.31137E-06    rms(broyden)= 0.31137E-06
  rms(prec ) = 0.32527E-06
  weight for this iteration     100.00

 eigenvalues of (default mixing * dielectric matrix)
  average eigenvalue GAMMA=   1.8794
  3.2458  2.8736  2.5738  2.5738  2.4267  2.2831  1.0284  0.9988  0.9515  0.9515
  0.7670

 Free energy of the ion-electron system (eV)
  ---------------------------------------------------
  alpha Z        PSCENC =         3.29344055
  Ewald energy   TEWEN  =      -226.95087875
  -Hartree energ DENC   =       -15.17283577
  -exchange      EXHF   =         0.00000000
  -V(xc)+E(xc)   XCENC  =       -18.05999094
  PAW double counting   =       829.90416847     -794.92310287
  entropy T*S    EENTRO =        -0.00000000
  eigenvalues    EBANDS =         4.92729297
  atomic energy  EATOM  =       206.13270273
  Solvation  Ediel_sol  =         0.00000000
  ---------------------------------------------------
  free energy    TOTEN  =       -10.84920360 eV

  energy without entropy =      -10.84920360  energy(sigma->0) =      -10.84920360


--------------------------------------------------------------------------------------------------------




--------------------------------------- Iteration      1(  17)  ---------------------------------------


    POTLOK:  cpu time      0.0299: real time      0.0669
    SETDIJ:  cpu time      0.0019: real time      0.0019
     EDDAV:  cpu time      0.3598: real time      0.3618
       DOS:  cpu time      0.0002: real time      0.0002
    CHARGE:  cpu time      0.0389: real time      0.0391
    MIXING:  cpu time      0.0015: real time      0.0015
    --------------------------------------------
      LOOP:  cpu time      0.4323: real time      0.4716

 eigenvalue-minimisations  :   552
 total energy-change (2. order) : 0.1524540E-09  (-0.6688039E-13)
 number of electron       8.0000001 magnetization 
 augmentation part       -0.4582897 magnetization 

 Broyden mixing:
  rms(total) = 0.10401E-06    rms(broyden)= 0.10401E-06
  rms(prec ) = 0.12755E-06
  weight for this iteration     100.00

 eigenvalues of (default mixing * dielectric matrix)
  average eigenvalue GAMMA=   1.8825
  3.2619  2.7848  2.6015  2.6015  2.5475  2.2496  1.5716  0.9546  0.9546  0.9953
  0.9953  1.0716

 Free energy of the ion-electron system (eV)
  ---------------------------------------------------
  alpha Z        PSCENC =         3.29344055
  Ewald energy   TEWEN  =      -226.95087875
  -Hartree energ DENC   =       -15.17283540
  -exchange      EXHF   =         0.00000000
  -V(xc)+E(xc)   XCENC  =       -18.05999104
  PAW double counting   =       829.90354645     -794.92248078
  entropy T*S    EENTRO =        -0.00000000
  eigenvalues    EBANDS =         4.92729264
  atomic energy  EATOM  =       206.13270273
  Solvation  Ediel_sol  =         0.00000000
  ---------------------------------------------------
  free energy    TOTEN  =       -10.84920360 eV

  energy without entropy =      -10.84920360  energy(sigma->0) =      -10.84920360


--------------------------------------------------------------------------------------------------------




--------------------------------------- Iteration      1(  18)  ---------------------------------------


    POTLOK:  cpu time      0.0752: real time      0.0845
    SETDIJ:  cpu time      0.0019: real time      0.0019
     EDDAV:  cpu time      0.3187: real time      0.3205
       DOS:  cpu time      0.0003: real time      0.0003
    --------------------------------------------
      LOOP:  cpu time      0.3959: real time      0.4071

 eigenvalue-minimisations  :   448
 total energy-change (2. order) :-0.4615686E-10  ( 0.1394534E-12)
 number of electron       8.0000001 magnetization 
 augmentation part       -0.4582897 magnetization 

 Free energy of the ion-electron system (eV)
  ---------------------------------------------------
  alpha Z        PSCENC =         3.29344055
  Ewald energy   TEWEN  =      -226.95087875
  -Hartree energ DENC   =       -15.17283597
  -exchange      EXHF   =         0.00000000
  -V(xc)+E(xc)   XCENC  =       -18.05999100
  PAW double counting   =       829.90339067     -794.92232505
  entropy T*S    EENTRO =        -0.00000000
  eigenvalues    EBANDS =         4.92729322
  atomic energy  EATOM  =       206.13270273
  Solvation  Ediel_sol  =         0.00000000
  ---------------------------------------------------
  free energy    TOTEN  =       -10.84920360 eV

  energy without entropy =      -10.84920360  energy(sigma->0) =      -10.84920360


--------------------------------------------------------------------------------------------------------




 average (electrostatic) potential at core
  the test charge radii are     0.9892
  (the norm of the test charge is              1.0000)
       1 -83.4818       2 -83.4818
 
 
 
 E-fermi :   5.7959     XC(G=0):  -9.3274     alpha+bet :-11.7326

 Fermi energy:         5.7958809382

 k-point     1 :       0.0000    0.0000    0.0000
  band No.  band energies     occupation 
      1      -6.1982      2.00000
      2       5.6170      2.00000
      3       5.6170      2.00000
      4       5.6170      2.00000
      5       8.1739      0.00000
      6       8.1739      0.00000
      7       8.1739      0.00000
      8       8.7518      0.00000

 k-point     2 :       0.1000    0.0000    0.0000
  band No.  band energies     occupation 
      1      -6.0696      2.00000
      2       4.4749      2.00000
      3       5.4232      2.00000
      4       5.4232      2.00000
      5       8.1400      0.00000
      6       8.4597      0.00000
      7       8.4597      0.00000
      8       9.7217      0.00000

 k-point     3 :       0.2000    0.0000    0.0000
  band No.  band energies     occupation 
      1      -5.6902      2.00000
      2       2.6350      2.00000
      3       5.0494      2.00000
      4       5.0494      2.00000
      5       7.7698      0.00000
      6       8.9615      0.00000
      7       8.9615      0.00000
      8      11.4962      0.00000

 k-point     4 :       0.3000    0.0000    0.0000
  band No.  band energies     occupation 
      1      -5.0868      2.00000
      2       0.8769      2.00000
      3       4.7193      2.00000
      4       4.7193      2.00000
      5       7.4062      0.00000
      6       9.1421      0.00000
      7       9.1421      0.00000
      8      13.1181      0.00000

 k-point     5 :       0.4000    0.0000    0.0000
  band No.  band energies     occupation 
      1      -4.3570      2.00000
      2      -0.5714      2.00000
      3       4.5094      2.00000
      4       4.5094      2.00000
      5       7.1663      0.00000
      6       9.0376      0.00000
      7       9.0376      0.00000
      8      13.4225      0.00000

 k-point     6 :       0.5000    0.0000    0.0000
  band No.  band energies     occupation 
      1      -3.9193      2.00000
      2      -1.2519      2.00000
      3       4.4385      2.00000
      4       4.4385      2.00000
      5       7.0840      0.00000
      6       8.9665      0.00000
      7       8.9665      0.00000
      8      13.3195      0.00000

 k-point     7 :       0.1000    0.1000    0.0000
  band No.  band energies     occupation 
      1      -6.0265      2.00000
      2       4.6614      2.00000
      3       5.0555      2.00000
      4       5.0555      2.00000
      5       7.8022      0.00000
      6       8.9463      0.00000
      7       8.9463      0.00000
      8       9.6063      0.00000

 k-point     8 :       0.2000    0.1000    0.0000
  band No.  band energies     occupation 
      1      -5.7294      2.00000
      2       3.1755      2.00000
      3       4.6289      2.00000
      4       4.7869      2.00000
      5       7.8564      0.00000
      6       8.9556      0.00000
      7       9.5901      0.00000
      8      10.5301      0.00000

 k-point     9 :       0.3000    0.1000    0.0000
  band No.  band energies     occupation 
      1      -5.1961      2.00000
      2       1.4447      2.00000
      3       4.3147      2.00000
      4       4.3591      2.00000
      5       7.9646      0.00000
      6       8.9589      0.00000
      7       9.8769      0.00000
      8      10.9191      0.00000

 k-point    10 :       0.4000    0.1000    0.0000
  band No.  band energies     occupation 
      1      -4.4876      2.00000
      2      -0.0995      2.00000
      3       3.9539      2.00000
      4       4.1682      2.00000
      5       7.8078      0.00000
      6       8.9469      0.00000
      7       9.7133      0.00000
      8      11.9639      0.00000

 k-point    11 :       0.5000    0.1000    0.0000
  band No.  band energies     occupation 
      1      -3.8646      2.00000
      2      -1.1125      2.00000
      3       3.6694      2.00000
      4       4.1989      2.00000
      5       7.7144      0.00000
      6       8.9276      0.00000
      7       9.4564      0.00000
      8      13.3573      0.00000

 k-point    12 :      -0.4000    0.1000    0.0000
  band No.  band energies     occupation 
      1      -4.0266      2.00000
      2      -0.8703      2.00000
      3       3.5455      2.00000
      4       4.3937      2.00000
      5       7.7692      0.00000
      6       9.0618      0.00000
      7       9.3035      0.00000
      8      13.6089      0.00000

 k-point    13 :      -0.3000    0.1000    0.0000
  band No.  band energies     occupation 
      1      -4.7374      2.00000
      2       0.3849      2.00000
      3       3.6077      2.00000
      4       4.7216      2.00000
      5       7.9685      0.00000
      6       9.2264      0.00000
      7       9.3053      0.00000
      8      12.5481      0.00000

 k-point    14 :      -0.2000    0.1000    0.0000
  band No.  band energies     occupation 
      1      -5.3996      2.00000
      2       2.0044      2.00000
      3       3.8830      2.00000
      4       5.1201      2.00000
      5       8.2760      0.00000
      6       8.9736      0.00000
      7       9.3007      0.00000
      8      11.4879      0.00000

 k-point    15 :      -0.1000    0.1000    0.0000
  band No.  band energies     occupation 
      1      -5.8569      2.00000
      2       3.5901      2.00000
      3       4.4859      2.00000
      4       5.4416      2.00000
      5       8.5277      0.00000
      6       8.5288      0.00000
      7       8.7067      0.00000
      8      10.6671      0.00000

 k-point    16 :       0.2000    0.2000    0.0000
  band No.  band energies     occupation 
      1      -5.5151      2.00000
      2       2.9824      2.00000
      3       4.1626      2.00000
      4       4.1626      2.00000
      5       7.0933      0.00000
      6       9.4703      0.00000
      7      10.4583      0.00000
      8      10.4583      0.00000

 k-point    17 :       0.3000    0.2000    0.0000
  band No.  band energies     occupation 
      1      -5.0579      2.00000
      2       1.7600      2.00000
      3       3.6601      2.00000
      4       3.8202      2.00000
      5       7.1892      0.00000
      6       9.0619      0.00000
      7      10.7085      0.00000
      8      11.0466      0.00000

 k-point    18 :       0.4000    0.2000    0.0000
  band No.  band energies     occupation 
      1      -4.3961      2.00000
      2       0.3534      2.00000
      3       3.0401      2.00000
      4       3.6624      2.00000
      5       7.4040      0.00000
      6       9.6868      0.00000
      7      10.4778      0.00000
      8      11.0131      0.00000

 k-point    19 :       0.5000    0.2000    0.0000
  band No.  band energies     occupation 
      1      -3.6830      2.00000
      2      -0.8030      2.00000
      3       2.5387      2.00000
      4       3.7044      2.00000
      5       7.4677      0.00000
      6      10.2589      0.00000
      7      10.6958      0.00000
      8      11.2127      0.00000

 k-point    20 :      -0.4000    0.2000    0.0000
  band No.  band energies     occupation 
      1      -3.5352      2.00000
      2      -1.0050      2.00000
      3       2.2474      2.00000
      4       3.9371      2.00000
      5       7.6755      0.00000
      6      10.1640      0.00000
      7      10.3975      0.00000
      8      13.1119      0.00000

 k-point    21 :      -0.3000    0.2000    0.0000
  band No.  band energies     occupation 
      1      -4.1718      2.00000
      2      -0.0430      2.00000
      3       2.2328      2.00000
      4       4.3258      2.00000
      5       8.0576      0.00000
      6      10.1216      0.00000
      7      10.1789      0.00000
      8      12.2350      0.00000

 k-point    22 :      -0.2000    0.2000    0.0000
  band No.  band energies     occupation 
      1      -4.8746      2.00000
      2       1.1704      2.00000
      3       2.6835      2.00000
      4       4.7859      2.00000
      5       8.4681      0.00000
      6       9.5827      0.00000
      7       9.8867      0.00000
      8      11.2743      0.00000

 k-point    23 :       0.3000    0.3000    0.0000
  band No.  band energies     occupation 
      1      -4.6767      2.00000
      2       1.2129      2.00000
      3       3.4346      2.00000
      4       3.4346      2.00000
      5       6.5064      0.00000
      6       8.0533      0.00000
      7      12.1885      0.00000
      8      12.1885      0.00000

 k-point    24 :       0.4000    0.3000    0.0000
  band No.  band energies     occupation 
      1      -4.0755      2.00000
      2       0.2242      2.00000
      3       2.8233      2.00000
      4       3.2330      2.00000
      5       6.6939      0.00000
      6       7.8827      0.00000
      7      12.4726      0.00000
      8      12.6130      0.00000

 k-point    25 :       0.5000    0.3000    0.0000
  band No.  band energies     occupation 
      1      -3.3416      2.00000
      2      -0.7615      2.00000
      3       2.0135      2.00000
      4       3.2389      2.00000
      5       6.8751      0.00000
      6       8.9933      0.00000
      7      12.2870      0.00000
      8      12.3749      0.00000

 k-point    26 :      -0.4000    0.3000    0.0000
  band No.  band energies     occupation 
      1      -2.9355      2.00000
      2      -1.2234      2.00000
      3       1.4728      2.00000
      4       3.4497      2.00000
      5       7.1032      0.00000
      6      10.7781      0.00000
      7      11.9794      0.00000
      8      12.1268      0.00000

 k-point    27 :      -0.3000    0.3000    0.0000
  band No.  band energies     occupation 
      1      -3.4611      2.00000
      2      -0.6458      2.00000
      3       1.4484      2.00000
      4       3.8377      2.00000
      5       7.5355      0.00000
      6      11.3112      0.00000
      7      11.6223      0.00000
      8      12.3445      0.00000

 k-point    28 :       0.4000    0.4000    0.0000
  band No.  band energies     occupation 
      1      -3.5350      2.00000
      2      -0.5202      2.00000
      3       2.9776      2.00000
      4       2.9776      2.00000
      5       6.2348      0.00000
      6       6.9664      0.00000
      7      14.0179      0.00000
      8      14.0179      0.00000

 k-point    29 :       0.5000    0.4000    0.0000
  band No.  band energies     occupation 
      1      -2.8203      2.00000
      2      -1.3464      2.00000
      3       2.4086      2.00000
      4       2.9296      2.00000
      5       6.4706      0.00000
      6       7.2159      0.00000
      7      14.2672      0.00000
      8      14.3442      0.00000

 k-point    30 :      -0.4000    0.4000    0.0000
  band No.  band energies     occupation 
      1      -2.3596      2.00000
      2      -1.7563      2.00000
      3       1.6476      2.00000
      4       3.0935      2.00000
      5       6.6807      0.00000
      6       8.7659      0.00000
      7      13.6142      0.00000
      8      14.1895      0.00000

 k-point    31 :       0.5000    0.5000    0.0000
  band No.  band energies     occupation 
      1      -2.1295      2.00000
      2      -2.1295      2.00000
      3       2.8227      2.00000
      4       2.8227      2.00000
      5       6.3685      0.00000
      6       6.3685      0.00000
      7      15.5542      0.00000
      8      15.5542      0.00000

 k-point    32 :       0.3000    0.2000    0.1000
  band No.  band energies     occupation 
      1      -5.3530      2.00000
      2       2.2554      2.00000
      3       3.5840      2.00000
      4       4.6616      2.00000
      5       7.9620      0.00000
      6       9.2664      0.00000
      7      10.2153      0.00000
      8      10.2361      0.00000

 k-point    33 :       0.4000    0.2000    0.1000
  band No.  band energies     occupation 
      1      -4.7535      2.00000
      2       0.8729      2.00000
      3       3.0003      2.00000
      4       4.2959      2.00000
      5       8.3021      0.00000
      6       9.1841      0.00000
      7      10.3089      0.00000
      8      10.7015      0.00000

 k-point    34 :       0.5000    0.2000    0.1000
  band No.  band energies     occupation 
      1      -4.0235      2.00000
      2      -0.4601      2.00000
      3       2.7665      2.00000
      4       3.9551      2.00000
      5       8.3405      0.00000
      6       8.8948      0.00000
      7      10.6285      0.00000
      8      11.6298      0.00000

 k-point    35 :      -0.4000    0.2000    0.1000
  band No.  band energies     occupation 
      1      -3.5780      2.00000
      2      -1.1197      2.00000
      3       2.7052      2.00000
      4       3.8212      2.00000
      5       8.3531      0.00000
      6       8.7311      0.00000
      7      10.5916      0.00000
      8      13.3485      0.00000

 k-point    36 :       0.4000    0.3000    0.1000
  band No.  band energies     occupation 
      1      -4.5303      2.00000
      2       0.8669      2.00000
      3       2.8711      2.00000
      4       3.5760      2.00000
      5       7.4037      0.00000
      6       8.6835      0.00000
      7      10.7578      0.00000
      8      12.0813      0.00000

 k-point    37 :       0.5000    0.3000    0.1000
  band No.  band energies     occupation 
      1      -3.8250      2.00000
      2      -0.2134      2.00000
      3       2.2625      2.00000
      4       3.2567      2.00000
      5       7.7842      0.00000
      6       9.3699      0.00000
      7      10.3837      0.00000
      8      12.4728      0.00000

 k-point    38 :      -0.4000    0.3000    0.1000
  band No.  band energies     occupation 
      1      -3.1921      2.00000
      2      -1.0535      2.00000
      3       1.8603      2.00000
      4       3.2025      2.00000
      5       7.9640      0.00000
      6       9.9566      0.00000
      7      11.0798      0.00000
      8      12.4008      0.00000

 k-point    39 :      -0.3000    0.3000    0.1000
  band No.  band energies     occupation 
      1      -3.3884      2.00000
      2      -0.8010      2.00000
      3       1.7156      2.00000
      4       3.4363      2.00000
      5       8.2976      0.00000
      6       9.7021      0.00000
      7      11.5090      0.00000
      8      12.2860      0.00000

 k-point    40 :      -0.2000    0.3000    0.1000
  band No.  band energies     occupation 
      1      -4.1067      2.00000
      2       0.1280      2.00000
      3       2.0137      2.00000
      4       3.8654      2.00000
      5       8.7765      0.00000
      6       9.2550      0.00000
      7      10.3020      0.00000
      8      11.8098      0.00000

 k-point    41 :       0.5000    0.4000    0.1000
  band No.  band energies     occupation 
      1      -3.4200      2.00000
      2      -0.6055      2.00000
      3       2.4685      2.00000
      4       2.7896      2.00000
      5       7.1202      0.00000
      6       7.7134      0.00000
      7      12.2907      0.00000
      8      14.0041      0.00000

 k-point    42 :      -0.4000    0.4000    0.1000
  band No.  band energies     occupation 
      1      -2.6987      2.00000
      2      -1.3663      2.00000
      3       1.7866      2.00000
      4       2.7005      2.00000
      5       7.4704      0.00000
      6       8.8951      0.00000
      7      11.8965      0.00000
      8      13.6524      0.00000

 k-point    43 :      -0.3000    0.4000    0.1000
  band No.  band energies     occupation 
      1      -2.7079      2.00000
      2      -1.3368      2.00000
      3       1.3814      2.00000
      4       2.9640      2.00000
      5       7.7918      0.00000
      6      10.7126      0.00000
      7      11.4946      0.00000
      8      11.8331      0.00000

 k-point    44 :      -0.4000    0.5000    0.1000
  band No.  band energies     occupation 
      1      -2.0792      2.00000
      2      -2.0792      2.00000
      3       2.4276      2.00000
      4       2.4276      2.00000
      5       7.2032      0.00000
      6       7.2032      0.00000
      7      14.0042      0.00000
      8      14.0042      0.00000

 k-point    45 :      -0.4000    0.4000    0.2000
  band No.  band energies     occupation 
      1      -3.1085      2.00000
      2      -0.8975      2.00000
      3       1.7278      2.00000
      4       2.6949      2.00000
      5       8.9996      0.00000
      6       9.3968      0.00000
      7       9.9888      0.00000
      8      13.3205      0.00000

 k-point    46 :      -0.3000    0.4000    0.2000
  band No.  band energies     occupation 
      1      -2.6100      2.00000
      2      -1.3968      2.00000
      3       1.5745      2.00000
      4       2.4499      2.00000
      5       9.2930      0.00000
      6       9.5695      0.00000
      7      10.9793      0.00000
      8      11.3855      0.00000

 k-point    47 :      -0.3000    0.5000    0.2000
  band No.  band energies     occupation 
      1      -1.9909      2.00000
      2      -1.9909      2.00000
      3       1.9306      2.00000
      4       1.9306      2.00000
      5       9.0426      0.00000
      6       9.0426      0.00000
      7      11.4792      0.00000
      8      11.4792      0.00000


--------------------------------------------------------------------------------------------------------


 soft charge-density along one line, spin component           1
         0         1         2         3         4         5         6         7         8         9
 total charge-density along one line
 
 pseudopotential strength for first ion, spin component:           1
 18.437  25.723  -0.000  -0.000  -0.000  -0.000  -0.000  -0.000
 25.723  35.893  -0.000  -0.000  -0.000  -0.000  -0.000  -0.000
 -0.000  -0.000   4.181  -0.000  -0.000   7.790  -0.000  -0.000
 -0.000  -0.000  -0.000   4.181  -0.000  -0.000   7.790  -0.000
 -0.000  -0.000  -0.000  -0.000   4.181  -0.000  -0.000   7.790
 -0.000  -0.000   7.790  -0.000  -0.000  14.528  -0.000  -0.000
 -0.000  -0.000  -0.000   7.790  -0.000  -0.000  14.528  -0.000
 -0.000  -0.000  -0.000  -0.000   7.790  -0.000  -0.000  14.528
 total augmentation occupancy for first ion, spin component:           1
  5.528  -2.064   0.000   0.000   0.000   0.000   0.000   0.000
 -2.064   0.887   0.000   0.000   0.000  -0.000  -0.000  -0.000
  0.000   0.000   2.904  -0.000   0.000  -0.649   0.000  -0.000
  0.000   0.000  -0.000   2.904  -0.000   0.000  -0.649  -0.000
  0.000   0.000   0.000  -0.000   2.904  -0.000   0.000  -0.649
  0.000  -0.000  -0.649   0.000  -0.000   0.153   0.000  -0.000
  0.000  -0.000   0.000  -0.649   0.000   0.000   0.153  -0.000
  0.000  -0.000  -0.000   0.000  -0.649   0.000  -0.000   0.153


------------------------ aborting loop because EDIFF is reached ----------------------------------------


    CHARGE:  cpu time      0.0395: real time      0.0397
    FORLOC:  cpu time      0.0023: real time      0.0023
    FORNL :  cpu time      0.0226: real time      0.0232
    FORCOR:  cpu time      0.0300: real time      0.0302
    FORHAR:  cpu time      0.0070: real time      0.0070
    MIXING:  cpu time      0.0016: real time      0.0016
    OFIELD:  cpu time      0.0000: real time      0.0000

 VOLUME and BASIS-vectors are now :
 -----------------------------------------------------------------------------
  energy-cutoff  :      520.00
  volume of cell :       40.89
      direct lattice vectors                 reciprocal lattice vectors
     0.000000000  2.734291991  2.734291991    -0.182862694  0.182862694  0.182862694
     2.734291991  0.000000000  2.734291991     0.182862694 -0.182862694  0.182862694
     2.734291991  2.734291991  0.000000000     0.182862694  0.182862694 -0.182862694

  length of vectors
     3.866872817  3.866872817  3.866872817     0.316727477  0.316727477  0.316727477


 FORCES acting on ions
    electron-ion (+dipol)            ewald-force                    non-local-force                 convergence-correction
 -----------------------------------------------------------------------------------------------
   0.564E-08 0.564E-08 0.809E-08   -.325E-15 -.901E-15 0.113E-15   -.763E-16 -.278E-16 -.520E-16   0.136E-12 0.135E-12 0.134E-12
   -.564E-08 -.564E-08 -.809E-08   0.471E-15 0.992E-15 -.560E-15   0.763E-16 0.486E-16 0.520E-16   -.131E-12 -.131E-12 -.133E-12
 -----------------------------------------------------------------------------------------------
   -.445E-13 -.825E-13 -.117E-13   0.146E-15 0.902E-16 -.447E-15   0.000E+00 0.208E-16 0.000E+00   0.507E-14 0.423E-14 0.278E-15
 
 
 POSITION                                       TOTAL-FORCE (eV/Angst)
 -----------------------------------------------------------------------------------
      0.00000      0.00000      0.00000         0.000000      0.000000     -0.000000
      1.36715      1.36715      1.36715        -0.000000     -0.000000      0.000000
 -----------------------------------------------------------------------------------
    total drift:                               -0.000000     -0.000000     -0.000000


--------------------------------------------------------------------------------------------------------



  FREE ENERGIE OF THE ION-ELECTRON SYSTEM (eV)
  ---------------------------------------------------
  free  energy   TOTEN  =       -10.84920360 eV

  energy  without entropy=      -10.84920360  energy(sigma->0) =      -10.84920360
 


--------------------------------------------------------------------------------------------------------


    POTLOK:  cpu time      0.0323: real time      0.0325


--------------------------------------------------------------------------------------------------------


 stress matrix after NEB project (eV)
      0.00000      0.00000      0.00000
      0.00000      0.00000      0.00000
      0.00000      0.00000      0.00000
  FORCES: max atom, RMS     0.000000    0.000000
  FORCE total and by dimension    0.000000    0.000000
  Stress total and by dimension    0.000000    0.000000
     LOOP+:  cpu time     10.5146: real time     10.8241
    4ORBIT:  cpu time      0.0000: real time      0.0000

 total amount of memory used by VASP MPI-rank0    40830. kBytes
=======================================================================

   base      :      30000. kBytes
   nonl-proj :       3392. kBytes
   fftplans  :       1986. kBytes
   grid      :       3744. kBytes
   one-center:          6. kBytes
   wavefun   :       1702. kBytes
 
  
  
 General timing and accounting informations for this job:
 ========================================================
  
                  Total CPU time used (sec):       12.343
                            User time (sec):       12.075
                          System time (sec):        0.268
                         Elapsed time (sec):       13.224
  
                   Maximum memory used (kb):      138532.
                   Average memory used (kb):          N/A
  
                          Minor page faults:        20360
                          Major page faults:          435
                 Voluntary context switches:         2887
