<?xml version="1.0" encoding="ISO-8859-1"?>
<modeling>
 <generator>
  <i name="program" type="string">vasp </i>
  <i name="version" type="string">6.4.2  </i>
  <i name="subversion" type="string">20Jul23 (build Oct 16 2024 22:45:58) complex                          parallel </i>
  <i name="platform" type="string">LinuxIFC </i>
  <i name="date" type="string">2025 01 29 </i>
  <i name="time" type="string">08:36:23 </i>
 </generator>
 <incar>
  <i type="string" name="SYSTEM">Si FCC</i>
  <i type="string" name="PREC">Accurate</i>
  <i type="int" name="IBRION">    -1</i>
  <i name="EDIFF">      0.00000000</i>
  <i name="EDIFFG">     -0.00001000</i>
  <i type="int" name="NSW">     0</i>
  <i type="int" name="ISIF">     0</i>
  <i name="ENCUT">    520.00000000</i>
  <i type="int" name="ISMEAR">     0</i>
  <i name="SIGMA">      0.03000000</i>
  <i type="logical" name="LWAVE"> F  </i>
  <i type="string" name="GGA">PE</i>
 </incar>
 <primitive_cell>
  <structure name="primitive_cell" >
   <crystal>
    <varray name="basis" >
     <v>       0.00000000       2.73429199       2.73429199 </v>
     <v>       2.73429199       0.00000000       2.73429199 </v>
     <v>       2.73429199       2.73429199       0.00000000 </v>
    </varray>
    <i name="volume">     40.88506259 </i>
    <varray name="rec_basis" >
     <v>      -0.18286269       0.18286269       0.18286269 </v>
     <v>       0.18286269      -0.18286269       0.18286269 </v>
     <v>       0.18286269       0.18286269      -0.18286269 </v>
    </varray>
   </crystal>
   <varray name="positions" >
    <v>       0.00000000       0.00000000       0.00000000 </v>
    <v>       0.25000000       0.25000000       0.25000000 </v>
   </varray>
  </structure>
  <varray name="primitive_index" >
   <v type="int" >        1 </v>
   <v type="int" >        2 </v>
  </varray>
 </primitive_cell>
 <kpoints>
  <generation param="Gamma">
   <v type="int" name="divisions">      10       10       10 </v>
   <v name="usershift">      0.00000000       0.00000000       0.00000000 </v>
   <v name="genvec1">      0.10000000       0.00000000       0.00000000 </v>
   <v name="genvec2">      0.00000000       0.10000000       0.00000000 </v>
   <v name="genvec3">      0.00000000       0.00000000       0.10000000 </v>
   <v name="shift">      0.00000000       0.00000000       0.00000000 </v>
  </generation>
  <varray name="kpointlist" >
   <v>       0.00000000       0.00000000       0.00000000 </v>
   <v>       0.10000000       0.00000000       0.00000000 </v>
   <v>       0.20000000       0.00000000       0.00000000 </v>
   <v>       0.30000000       0.00000000       0.00000000 </v>
   <v>       0.40000000       0.00000000       0.00000000 </v>
   <v>       0.50000000       0.00000000       0.00000000 </v>
   <v>       0.10000000       0.10000000       0.00000000 </v>
   <v>       0.20000000       0.10000000       0.00000000 </v>
   <v>       0.30000000       0.10000000       0.00000000 </v>
   <v>       0.40000000       0.10000000       0.00000000 </v>
   <v>       0.50000000       0.10000000       0.00000000 </v>
   <v>      -0.40000000       0.10000000       0.00000000 </v>
   <v>      -0.30000000       0.10000000       0.00000000 </v>
   <v>      -0.20000000       0.10000000       0.00000000 </v>
   <v>      -0.10000000       0.10000000       0.00000000 </v>
   <v>       0.20000000       0.20000000       0.00000000 </v>
   <v>       0.30000000       0.20000000       0.00000000 </v>
   <v>       0.40000000       0.20000000       0.00000000 </v>
   <v>       0.50000000       0.20000000       0.00000000 </v>
   <v>      -0.40000000       0.20000000       0.00000000 </v>
   <v>      -0.30000000       0.20000000       0.00000000 </v>
   <v>      -0.20000000       0.20000000       0.00000000 </v>
   <v>       0.30000000       0.30000000       0.00000000 </v>
   <v>       0.40000000       0.30000000       0.00000000 </v>
   <v>       0.50000000       0.30000000       0.00000000 </v>
   <v>      -0.40000000       0.30000000       0.00000000 </v>
   <v>      -0.30000000       0.30000000       0.00000000 </v>
   <v>       0.40000000       0.40000000       0.00000000 </v>
   <v>       0.50000000       0.40000000       0.00000000 </v>
   <v>      -0.40000000       0.40000000       0.00000000 </v>
   <v>       0.50000000       0.50000000       0.00000000 </v>
   <v>       0.30000000       0.20000000       0.10000000 </v>
   <v>       0.40000000       0.20000000       0.10000000 </v>
   <v>       0.50000000       0.20000000       0.10000000 </v>
   <v>      -0.40000000       0.20000000       0.10000000 </v>
   <v>       0.40000000       0.30000000       0.10000000 </v>
   <v>       0.50000000       0.30000000       0.10000000 </v>
   <v>      -0.40000000       0.30000000       0.10000000 </v>
   <v>      -0.30000000       0.30000000       0.10000000 </v>
   <v>      -0.20000000       0.30000000       0.10000000 </v>
   <v>       0.50000000       0.40000000       0.10000000 </v>
   <v>      -0.40000000       0.40000000       0.10000000 </v>
   <v>      -0.30000000       0.40000000       0.10000000 </v>
   <v>      -0.40000000       0.50000000       0.10000000 </v>
   <v>      -0.40000000       0.40000000       0.20000000 </v>
   <v>      -0.30000000       0.40000000       0.20000000 </v>
   <v>      -0.30000000       0.50000000       0.20000000 </v>
  </varray>
  <varray name="weights" >
   <v>       0.00100000 </v>
   <v>       0.00800000 </v>
   <v>       0.00800000 </v>
   <v>       0.00800000 </v>
   <v>       0.00800000 </v>
   <v>       0.00400000 </v>
   <v>       0.00600000 </v>
   <v>       0.02400000 </v>
   <v>       0.02400000 </v>
   <v>       0.02400000 </v>
   <v>       0.02400000 </v>
   <v>       0.02400000 </v>
   <v>       0.02400000 </v>
   <v>       0.02400000 </v>
   <v>       0.01200000 </v>
   <v>       0.00600000 </v>
   <v>       0.02400000 </v>
   <v>       0.02400000 </v>
   <v>       0.02400000 </v>
   <v>       0.02400000 </v>
   <v>       0.02400000 </v>
   <v>       0.01200000 </v>
   <v>       0.00600000 </v>
   <v>       0.02400000 </v>
   <v>       0.02400000 </v>
   <v>       0.02400000 </v>
   <v>       0.01200000 </v>
   <v>       0.00600000 </v>
   <v>       0.02400000 </v>
   <v>       0.01200000 </v>
   <v>       0.00300000 </v>
   <v>       0.02400000 </v>
   <v>       0.04800000 </v>
   <v>       0.04800000 </v>
   <v>       0.02400000 </v>
   <v>       0.02400000 </v>
   <v>       0.04800000 </v>
   <v>       0.04800000 </v>
   <v>       0.04800000 </v>
   <v>       0.02400000 </v>
   <v>       0.02400000 </v>
   <v>       0.04800000 </v>
   <v>       0.02400000 </v>
   <v>       0.01200000 </v>
   <v>       0.02400000 </v>
   <v>       0.02400000 </v>
   <v>       0.01200000 </v>
  </varray>
 </kpoints>
 <parameters>
  <separator name="general" >
   <i type="string" name="SYSTEM">Si FCC</i>
   <i type="logical" name="LCOMPAT"> F  </i>
  </separator>
  <separator name="electronic" >
   <i type="string" name="PREC">accura</i>
   <i name="ENMAX">    520.00000000</i>
   <i name="ENAUG">    322.06900000</i>
   <i name="EDIFF">      0.00000000</i>
   <i type="int" name="IALGO">    38</i>
   <i type="int" name="IWAVPR">    10</i>
   <i type="int" name="NBANDS">     8</i>
   <i type="int" name="NBANDSLOW">    -1</i>
   <i type="int" name="NBANDSHIGH">    -1</i>
   <i name="NELECT">      8.00000000</i>
   <i type="int" name="TURBO">     0</i>
   <i type="int" name="IRESTART">     0</i>
   <i type="int" name="NREBOOT">     0</i>
   <i type="int" name="NMIN">     0</i>
   <i name="EREF">      0.00000000</i>
   <separator name="electronic smearing" >
    <i type="int" name="ISMEAR">     0</i>
    <i name="SIGMA">      0.03000000</i>
    <i name="KSPACING">      0.50000000</i>
    <i type="logical" name="KGAMMA"> T  </i>
    <i type="logical" name="KBLOWUP"> T  </i>
   </separator>
   <separator name="electronic projectors" >
    <i type="logical" name="LREAL"> F  </i>
    <v name="ROPT">      0.00000000</v>
    <i type="int" name="LMAXPAW">  -100</i>
    <i type="int" name="LMAXMIX">     2</i>
    <i type="logical" name="NLSPLINE"> F  </i>
   </separator>
   <separator name="electronic startup" >
    <i type="int" name="ISTART">     0</i>
    <i type="int" name="ICHARG">     2</i>
    <i type="int" name="INIWAV">     1</i>
   </separator>
   <separator name="electronic spin" >
    <i type="int" name="ISPIN">     1</i>
    <i type="logical" name="LNONCOLLINEAR"> F  </i>
    <v name="MAGMOM">      1.00000000      1.00000000</v>
    <i name="NUPDOWN">     -1.00000000</i>
    <i type="logical" name="LSORBIT"> F  </i>
    <v name="SAXIS">      0.00000000      0.00000000      1.00000000</v>
    <i type="logical" name="LSPIRAL"> F  </i>
    <v name="QSPIRAL">      0.00000000      0.00000000      0.00000000</v>
    <i type="logical" name="LZEROZ"> F  </i>
   </separator>
   <separator name="electronic exchange-correlation" >
    <i type="logical" name="LASPH"> F  </i>
    <i type="logical" name="LMETAGGA"> F  </i>
   </separator>
   <separator name="electronic convergence" >
    <i type="int" name="NELM">    60</i>
    <i type="int" name="NELMDL">    -5</i>
    <i type="int" name="NELMIN">     2</i>
    <i name="ENINI">    520.00000000</i>
    <separator name="electronic convergence detail" >
     <i type="logical" name="LDIAG"> T  </i>
     <i type="logical" name="LSUBROT"> F  </i>
     <i name="WEIMIN">      0.00000000</i>
     <i name="EBREAK">      0.00000000</i>
     <i name="DEPER">      0.30000000</i>
     <i type="int" name="NRMM">     4</i>
     <i name="TIME">      0.40000000</i>
    </separator>
   </separator>
   <separator name="electronic mixer" >
    <i name="AMIX">      0.40000000</i>
    <i name="BMIX">      1.00000000</i>
    <i name="AMIN">      0.10000000</i>
    <i name="AMIX_MAG">      1.60000000</i>
    <i name="BMIX_MAG">      1.00000000</i>
    <separator name="electronic mixer details" >
     <i type="int" name="IMIX">     4</i>
     <i type="logical" name="MIXFIRST"> F  </i>
     <i type="int" name="MAXMIX">   -45</i>
     <i name="WC">    100.00000000</i>
     <i type="int" name="INIMIX">     1</i>
     <i type="int" name="MIXPRE">     1</i>
     <i type="int" name="MREMOVE">     5</i>
    </separator>
   </separator>
   <separator name="electronic dipolcorrection" >
    <i type="logical" name="LDIPOL"> F  </i>
    <i type="logical" name="LMONO"> F  </i>
    <i type="int" name="IDIPOL">     0</i>
    <i name="EPSILON">      1.00000000</i>
    <v name="DIPOL">   -100.00000000   -100.00000000   -100.00000000</v>
    <i name="EFIELD">      0.00000000</i>
   </separator>
  </separator>
  <separator name="grids" >
   <i type="int" name="NGX">    30</i>
   <i type="int" name="NGY">    30</i>
   <i type="int" name="NGZ">    30</i>
   <i type="int" name="NGXF">    60</i>
   <i type="int" name="NGYF">    60</i>
   <i type="int" name="NGZF">    60</i>
   <i type="logical" name="ADDGRID"> F  </i>
  </separator>
  <separator name="ionic" >
   <i type="int" name="NSW">     0</i>
   <i type="int" name="IBRION">    -1</i>
   <i type="int" name="MDALGO">     0</i>
   <i type="int" name="ISIF">     0</i>
   <i name="PSTRESS">      0.00000000</i>
   <i name="EDIFFG">     -0.00001000</i>
   <i type="int" name="NFREE">     0</i>
   <i name="POTIM">      0.50000000</i>
   <i name="SMASS">     -3.00000000</i>
   <i name="SCALEE">      1.00000000</i>
  </separator>
  <separator name="ionic md" >
   <i name="TEBEG">      0.00010000</i>
   <i name="TEEND">      0.00010000</i>
   <i type="int" name="NBLOCK">     1</i>
   <i type="int" name="KBLOCK">     1</i>
   <i type="int" name="NPACO">   256</i>
   <i name="APACO">     10.00000000</i>
  </separator>
  <separator name="symmetry" >
   <i type="int" name="ISYM">     2</i>
   <i name="SYMPREC">      0.00001000</i>
  </separator>
  <separator name="dos" >
   <i type="int" name="LORBIT">     0</i>
   <v name="RWIGS">     -1.00000000</v>
   <i type="int" name="NEDOS">   301</i>
   <i name="EMIN">     10.00000000</i>
   <i name="EMAX">    -10.00000000</i>
   <i name="EFERMI">      0.00000000</i>
  </separator>
  <separator name="writing" >
   <i type="int" name="NWRITE">     2</i>
   <i type="logical" name="LWAVE"> F  </i>
   <i type="logical" name="LDOWNSAMPLE"> F  </i>
   <i type="logical" name="LCHARG"> T  </i>
   <i type="logical" name="LPARD"> F  </i>
   <i type="logical" name="LVTOT"> F  </i>
   <i type="logical" name="LVHAR"> F  </i>
   <i type="logical" name="LELF"> F  </i>
   <i type="logical" name="LOPTICS"> F  </i>
   <v name="STM">      0.00000000      0.00000000      0.00000000      0.00000000      0.00000000      0.00000000      0.00000000</v>
  </separator>
  <separator name="performance" >
   <i type="int" name="NPAR">     4</i>
   <i type="int" name="NSIM">     4</i>
   <i type="int" name="NBLK">    -1</i>
   <i type="logical" name="LPLANE"> T  </i>
   <i type="logical" name="LSCALAPACK"> T  </i>
   <i type="logical" name="LSCAAWARE"> F  </i>
   <i type="logical" name="LSCALU"> F  </i>
   <i type="logical" name="LASYNC"> F  </i>
   <i type="logical" name="LORBITALREAL"> F  </i>
  </separator>
  <separator name="miscellaneous" >
   <i type="int" name="IDIOT">     3</i>
   <i type="int" name="PHON_NSTRUCT">    -1</i>
   <i type="logical" name="LMUSIC"> F  </i>
   <v name="POMASS">     28.08500000</v>
   <v name="DARWINR">      0.00000000</v>
   <v name="DARWINV">      1.00000000</v>
   <i type="logical" name="LCORR"> T  </i>
  </separator>
  <i type="logical" name="GGA_COMPAT"> T  </i>
  <i type="logical" name="LBERRY"> F  </i>
  <i type="int" name="ICORELEVEL">     0</i>
  <i type="logical" name="LDAU"> F  </i>
  <i type="int" name="I_CONSTRAINED_M">     0</i>
  <separator name="electronic exchange-correlation" >
   <i type="string" name="GGA">PE</i>
   <i type="int" name="VOSKOWN">     0</i>
   <i type="logical" name="LHFCALC"> F  </i>
   <i type="string" name="PRECFOCK"></i>
   <i type="logical" name="LSYMGRAD"> F  </i>
   <i type="logical" name="LHFONE"> F  </i>
   <i type="logical" name="LRHFCALC"> F  </i>
   <i type="logical" name="LTHOMAS"> F  </i>
   <i type="logical" name="LMODELHF"> F  </i>
   <i type="logical" name="LFOCKACE"> F  </i>
   <i name="ENCUT4O">     -1.00000000</i>
   <i type="int" name="EXXOEP">     0</i>
   <i type="int" name="FOURORBIT">     0</i>
   <i name="AEXX">      0.00000000</i>
   <i name="HFALPHA">      0.00000000</i>
   <i name="MCALPHA">      0.00000000</i>
   <i name="ALDAX">      1.00000000</i>
   <i name="AGGAX">      1.00000000</i>
   <i name="ALDAC">      1.00000000</i>
   <i name="AGGAC">      1.00000000</i>
   <i type="int" name="NKREDX">     1</i>
   <i type="int" name="NKREDY">     1</i>
   <i type="int" name="NKREDZ">     1</i>
   <i type="logical" name="SHIFTRED"> F  </i>
   <i type="logical" name="ODDONLY"> F  </i>
   <i type="logical" name="EVENONLY"> F  </i>
   <i type="int" name="LMAXFOCK">     0</i>
   <i type="int" name="NMAXFOCKAE">     0</i>
   <i type="logical" name="LFOCKAEDFT"> F  </i>
   <i name="HFSCREEN">      0.00000000</i>
   <i name="HFSCREENC">      0.00000000</i>
   <i type="int" name="NBANDSGWLOW">     0</i>
  </separator>
  <separator name="vdW DFT" >
   <i type="logical" name="LUSE_VDW"> F  </i>
   <i type="int" name="IVDW_NL">     1</i>
   <i type="logical" name="LSPIN_VDW"> F  </i>
   <i name="Zab_VDW">     -0.84910000</i>
   <i name="PARAM1">      0.12340000</i>
   <i name="PARAM2">      1.00000000</i>
   <i name="PARAM3">      0.00000000</i>
  </separator>
  <separator name="model GW" >
   <i type="int" name="MODEL_GW">     0</i>
   <i name="MODEL_EPS0">     12.26551878</i>
   <i name="MODEL_ALPHA">      1.00000000</i>
  </separator>
  <separator name="linear response parameters" >
   <i type="logical" name="LEPSILON"> F  </i>
   <i type="logical" name="LRPA"> F  </i>
   <i type="logical" name="LNABLA"> F  </i>
   <i type="logical" name="LVEL"> F  </i>
   <i name="CSHIFT">      0.10000000</i>
   <i name="OMEGAMAX">     -1.00000000</i>
   <i name="DEG_THRESHOLD">      0.00200000</i>
   <i name="RTIME">     -0.10000000</i>
   <i name="WPLASMAI">      0.00000000</i>
   <v name="DFIELD">      0.00000000      0.00000000      0.00000000</v>
   <v name="WPLASMA">      0.00000000      0.00000000      0.00000000      0.00000000      0.00000000      0.00000000      0.00000000      0.00000000      0.00000000</v>
  </separator>
  <separator name="orbital magnetization" >
   <i type="logical" name="NUCIND"> F  </i>
   <v name="MAGPOS">      0.00000000      0.00000000      0.00000000</v>
   <i type="logical" name="LNICSALL"> T  </i>
   <i type="logical" name="ORBITALMAG"> F  </i>
   <i type="logical" name="LMAGBLOCH"> F  </i>
   <i type="logical" name="LCHIMAG"> F  </i>
   <i type="logical" name="LGAUGE"> T  </i>
   <i type="int" name="MAGATOM">     0</i>
   <v name="MAGDIPOL">      0.00000000      0.00000000      0.00000000</v>
   <v name="AVECCONST">      0.00000000      0.00000000      0.00000000</v>
  </separator>
  <separator name="response functions" >
   <i type="logical" name="LALL_IN_ONE"> F  </i>
   <i type="int" name="IALL_IN_ONE">    -1</i>
   <i type="int" name="NBANDS_WAVE">    -1</i>
   <i type="logical" name="LFINITE_TEMPERATURE"> F  </i>
   <i type="logical" name="LADDER"> F  </i>
   <i type="logical" name="LRPAFORCE"> F  </i>
   <i type="logical" name="LFXC"> F  </i>
   <i type="logical" name="LHARTREE"> T  </i>
   <i type="int" name="IBSE">     0</i>
   <v type="int" name="KPOINT">    -1     0     0     0</v>
   <i type="logical" name="LTCTC"> F  </i>
   <i type="logical" name="LTCTE"> F  </i>
   <i type="logical" name="LTETE"> F  </i>
   <i type="logical" name="LTRIPLET"> F  </i>
   <i type="logical" name="LFXCEPS"> F  </i>
   <i type="logical" name="LFXHEG"> F  </i>
   <i type="int" name="NATURALO">     2</i>
   <i type="logical" name="LHOLEGF"> F  </i>
   <i type="logical" name="L2ORDER"> F  </i>
   <i type="logical" name="LDMP1"> F  </i>
   <i type="logical" name="LMP2LT"> F  </i>
   <i type="logical" name="LSMP2LT"> F  </i>
   <i type="logical" name="LGWLF"> F  </i>
   <i name="ENCUTGW">     -1.60000002</i>
   <i name="ENCUTGWSOFT">     -1.60000002</i>
   <i name="ENCUTLF">     -1.00000000</i>
   <i type="logical" name="LESF_SPLINES"> F  </i>
   <i type="int" name="LMAXMP2">    -1</i>
   <i name="SCISSOR">      0.00000000</i>
   <i type="int" name="NOMEGA">     0</i>
   <i type="int" name="NOMEGAR">     0</i>
   <i type="int" name="NBANDSGW">    -1</i>
   <i type="int" name="NBANDSO">    -1</i>
   <i type="int" name="NBANDSV">    -1</i>
   <i type="int" name="NELMGW">     1</i>
   <i type="int" name="NELMHF">     1</i>
   <i type="int" name="DIM">     3</i>
   <i type="int" name="IESPILON">     4</i>
   <i type="int" name="ANTIRES">     0</i>
   <i name="OMEGAMAX">    -30.00000000</i>
   <i name="OMEGAMIN">    -30.00000000</i>
   <i name="OMEGATL">   -200.00000000</i>
   <i type="int" name="OMEGAGRID">     0</i>
   <i name="CSHIFT">     -0.10000000</i>
   <i type="logical" name="LSELFENERGY"> F  </i>
   <i type="logical" name="LSPECTRAL"> F  </i>
   <i type="logical" name="LSPECTRALGW"> F  </i>
   <i type="logical" name="LSINGLES"> F  </i>
   <i type="logical" name="LFERMIGW"> F  </i>
   <i type="logical" name="ODDONLYGW"> F  </i>
   <i type="logical" name="EVENONLYGW"> F  </i>
   <i type="int" name="NKREDLFX">     1</i>
   <i type="int" name="NKREDLFY">     1</i>
   <i type="int" name="NKREDLFZ">     1</i>
   <i type="int" name="MAXMEM">  2800</i>
   <i type="int" name="TELESCOPE">     0</i>
   <i type="int" name="NTAUPAR">    -1</i>
   <i type="int" name="NOMEGAPAR">    -1</i>
   <i name="DAMP_NEWTON">      0.80000001</i>
   <i name="LAMBDA">      1.00000000</i>
  </separator>
  <separator name="External order field" >
   <i name="OFIELD_KAPPA">      0.00000000</i>
   <v name="OFIELD_K">      0.00000000      0.00000000      0.00000000</v>
   <i name="OFIELD_Q6_NEAR">      0.00000000</i>
   <i name="OFIELD_Q6_FAR">      0.00000000</i>
   <i name="OFIELD_A">      0.00000000</i>
  </separator>
  <separator name="optional k-points parameters" >
   <i type="int" name="KPOINTS_OPT_MODE">     1</i>
   <i type="logical" name="LKPOINTS_OPT"> F  </i>
  </separator>
  <separator name="solvation model" >
   <i type="logical" name="LSOL"> F  </i>
  </separator>
 </parameters>
 <atominfo>
  <atoms>       2 </atoms>
  <types>       1 </types>
  <array name="atoms" >
   <dimension dim="1">ion</dimension>
   <field type="string">element</field>
   <field type="int">atomtype</field>
   <set>
    <rc><c>Si</c><c>   1</c></rc>
    <rc><c>Si</c><c>   1</c></rc>
   </set>
  </array>
  <array name="atomtypes" >
   <dimension dim="1">type</dimension>
   <field type="int">atomspertype</field>
   <field type="string">element</field>
   <field>mass</field>
   <field>valence</field>
   <field type="string">pseudopotential</field>
   <set>
    <rc><c>   2</c><c>Si</c><c>     28.08500000</c><c>      4.00000000</c><c>  PAW_PBE Si 05Jan2001                  </c></rc>
   </set>
  </array>
 </atominfo>
 <structure name="initialpos" >
  <crystal>
   <varray name="basis" >
    <v>       0.00000000       2.73429199       2.73429199 </v>
    <v>       2.73429199       0.00000000       2.73429199 </v>
    <v>       2.73429199       2.73429199       0.00000000 </v>
   </varray>
   <i name="volume">     40.88506259 </i>
   <varray name="rec_basis" >
    <v>      -0.18286269       0.18286269       0.18286269 </v>
    <v>       0.18286269      -0.18286269       0.18286269 </v>
    <v>       0.18286269       0.18286269      -0.18286269 </v>
   </varray>
  </crystal>
  <varray name="positions" >
   <v>       0.00000000       0.00000000       0.00000000 </v>
   <v>       0.25000000       0.25000000       0.25000000 </v>
  </varray>
 </structure>
 <calculation>
  <scstep>
   <time name="dav">    0.44    0.44</time>
   <time name="total">    0.48    0.49</time>
   <energy>
    <i name="alphaZ">      3.29344055 </i>
    <i name="ewald">   -226.95087875 </i>
    <i name="hartreedc">    -11.32218615 </i>
    <i name="XCdc">    -18.68487302 </i>
    <i name="pawpsdc">    176.24759923 </i>
    <i name="pawaedc">   -141.06103558 </i>
    <i name="eentropy">     -0.00029862 </i>
    <i name="bandstr">     19.12255032 </i>
    <i name="atom">    206.13270273 </i>
    <i name="e_fr_energy">      6.77702072 </i>
    <i name="e_wo_entrp">      6.77731934 </i>
    <i name="e_0_energy">      6.77717003 </i>
   </energy>
  </scstep>
  <scstep>
   <time name="dav">    0.62    0.62</time>
   <time name="total">    0.62    0.62</time>
   <energy>
    <i name="e_fr_energy">    -10.78049911 </i>
    <i name="e_wo_entrp">    -10.78049911 </i>
    <i name="e_0_energy">    -10.78049911 </i>
   </energy>
  </scstep>
  <scstep>
   <time name="dav">    0.53    0.56</time>
   <time name="total">    0.53    0.56</time>
   <energy>
    <i name="e_fr_energy">    -11.01629563 </i>
    <i name="e_wo_entrp">    -11.01629563 </i>
    <i name="e_0_energy">    -11.01629563 </i>
   </energy>
  </scstep>
  <scstep>
   <time name="dav">    0.63    0.65</time>
   <time name="total">    0.64    0.65</time>
   <energy>
    <i name="e_fr_energy">    -11.01746130 </i>
    <i name="e_wo_entrp">    -11.01746130 </i>
    <i name="e_0_energy">    -11.01746130 </i>
   </energy>
  </scstep>
  <scstep>
   <time name="dav">    0.55    0.56</time>
   <time name="total">    0.59    0.60</time>
   <energy>
    <i name="e_fr_energy">    -11.01746213 </i>
    <i name="e_wo_entrp">    -11.01746213 </i>
    <i name="e_0_energy">    -11.01746213 </i>
   </energy>
  </scstep>
  <scstep>
   <time name="dav">    0.50    0.50</time>
   <time name="total">    0.57    0.58</time>
   <energy>
    <i name="e_fr_energy">    -10.90150334 </i>
    <i name="e_wo_entrp">    -10.90150334 </i>
    <i name="e_0_energy">    -10.90150334 </i>
   </energy>
  </scstep>
  <scstep>
   <time name="dav">    0.51    0.52</time>
   <time name="total">    0.59    0.60</time>
   <energy>
    <i name="e_fr_energy">    -10.84787954 </i>
    <i name="e_wo_entrp">    -10.84787954 </i>
    <i name="e_0_energy">    -10.84787954 </i>
   </energy>
  </scstep>
  <scstep>
   <time name="dav">    0.49    0.50</time>
   <time name="total">    0.57    0.57</time>
   <energy>
    <i name="e_fr_energy">    -10.84898065 </i>
    <i name="e_wo_entrp">    -10.84898065 </i>
    <i name="e_0_energy">    -10.84898065 </i>
   </energy>
  </scstep>
  <scstep>
   <time name="dav">    0.59    0.59</time>
   <time name="total">    0.67    0.69</time>
   <energy>
    <i name="e_fr_energy">    -10.84917735 </i>
    <i name="e_wo_entrp">    -10.84917735 </i>
    <i name="e_0_energy">    -10.84917735 </i>
   </energy>
  </scstep>
  <scstep>
   <time name="dav">    0.49    0.50</time>
   <time name="total">    0.57    0.61</time>
   <energy>
    <i name="e_fr_energy">    -10.84920350 </i>
    <i name="e_wo_entrp">    -10.84920350 </i>
    <i name="e_0_energy">    -10.84920350 </i>
   </energy>
  </scstep>
  <scstep>
   <time name="dav">    0.62    0.62</time>
   <time name="total">    0.69    0.69</time>
   <energy>
    <i name="e_fr_energy">    -10.84920323 </i>
    <i name="e_wo_entrp">    -10.84920323 </i>
    <i name="e_0_energy">    -10.84920323 </i>
   </energy>
  </scstep>
  <scstep>
   <time name="dav">    0.50    0.50</time>
   <time name="total">    0.57    0.58</time>
   <energy>
    <i name="e_fr_energy">    -10.84920358 </i>
    <i name="e_wo_entrp">    -10.84920358 </i>
    <i name="e_0_energy">    -10.84920358 </i>
   </energy>
  </scstep>
  <scstep>
   <time name="dav">    0.60    0.61</time>
   <time name="total">    0.68    0.69</time>
   <energy>
    <i name="e_fr_energy">    -10.84920360 </i>
    <i name="e_wo_entrp">    -10.84920360 </i>
    <i name="e_0_energy">    -10.84920360 </i>
   </energy>
  </scstep>
  <scstep>
   <time name="dav">    0.50    0.50</time>
   <time name="total">    0.57    0.58</time>
   <energy>
    <i name="e_fr_energy">    -10.84920360 </i>
    <i name="e_wo_entrp">    -10.84920360 </i>
    <i name="e_0_energy">    -10.84920360 </i>
   </energy>
  </scstep>
  <scstep>
   <time name="dav">    0.43    0.43</time>
   <time name="total">    0.51    0.53</time>
   <energy>
    <i name="e_fr_energy">    -10.84920360 </i>
    <i name="e_wo_entrp">    -10.84920360 </i>
    <i name="e_0_energy">    -10.84920360 </i>
   </energy>
  </scstep>
  <scstep>
   <time name="dav">    0.37    0.37</time>
   <time name="total">    0.44    0.45</time>
   <energy>
    <i name="e_fr_energy">    -10.84920360 </i>
    <i name="e_wo_entrp">    -10.84920360 </i>
    <i name="e_0_energy">    -10.84920360 </i>
   </energy>
  </scstep>
  <scstep>
   <time name="dav">    0.36    0.36</time>
   <time name="total">    0.43    0.47</time>
   <energy>
    <i name="e_fr_energy">    -10.84920360 </i>
    <i name="e_wo_entrp">    -10.84920360 </i>
    <i name="e_0_energy">    -10.84920360 </i>
   </energy>
  </scstep>
  <scstep>
   <time name="dav">    0.32    0.32</time>
   <time name="total">    0.40    0.41</time>
   <energy>
    <i name="alphaZ">      3.29344055 </i>
    <i name="ewald">   -226.95087875 </i>
    <i name="hartreedc">    -15.17283597 </i>
    <i name="XCdc">    -18.05999100 </i>
    <i name="pawpsdc">    829.90339067 </i>
    <i name="pawaedc">   -794.92232505 </i>
    <i name="eentropy">     -0.00000000 </i>
    <i name="bandstr">      4.92729322 </i>
    <i name="atom">    206.13270273 </i>
    <i name="e_fr_energy">    -10.84920360 </i>
    <i name="e_wo_entrp">    -10.84920360 </i>
    <i name="e_0_energy">    -10.84920360 </i>
   </energy>
  </scstep>
  <structure>
   <crystal>
    <varray name="basis" >
     <v>       0.00000000       2.73429199       2.73429199 </v>
     <v>       2.73429199       0.00000000       2.73429199 </v>
     <v>       2.73429199       2.73429199       0.00000000 </v>
    </varray>
    <i name="volume">     40.88506259 </i>
    <varray name="rec_basis" >
     <v>      -0.18286269       0.18286269       0.18286269 </v>
     <v>       0.18286269      -0.18286269       0.18286269 </v>
     <v>       0.18286269       0.18286269      -0.18286269 </v>
    </varray>
   </crystal>
   <varray name="positions" >
    <v>       0.00000000       0.00000000       0.00000000 </v>
    <v>       0.25000000       0.25000000       0.25000000 </v>
   </varray>
  </structure>
  <varray name="forces" >
   <v>       0.00000000       0.00000000      -0.00000000 </v>
   <v>      -0.00000000      -0.00000000       0.00000000 </v>
  </varray>
  <energy>
   <i name="e_fr_energy">    -10.84920360 </i>
   <i name="e_wo_entrp">    -10.84920360 </i>
   <i name="e_0_energy">    -10.84920360 </i>
  </energy>
  <time name="totalsc">   10.51   10.82</time>
  <eigenvalues>
   <array>
    <dimension dim="1">band</dimension>
    <dimension dim="2">kpoint</dimension>
    <dimension dim="3">spin</dimension>
    <field>eigene</field>
    <field>occ</field>
    <set>
     <set comment="spin 1">
      <set comment="kpoint 1">
       <r>   -6.1982    1.0000 </r>
       <r>    5.6170    1.0000 </r>
       <r>    5.6170    1.0000 </r>
       <r>    5.6170    1.0000 </r>
       <r>    8.1739    0.0000 </r>
       <r>    8.1739    0.0000 </r>
       <r>    8.1739    0.0000 </r>
       <r>    8.7518    0.0000 </r>
      </set>
      <set comment="kpoint 2">
       <r>   -6.0696    1.0000 </r>
       <r>    4.4749    1.0000 </r>
       <r>    5.4232    1.0000 </r>
       <r>    5.4232    1.0000 </r>
       <r>    8.1400    0.0000 </r>
       <r>    8.4597    0.0000 </r>
       <r>    8.4597    0.0000 </r>
       <r>    9.7217    0.0000 </r>
      </set>
      <set comment="kpoint 3">
       <r>   -5.6902    1.0000 </r>
       <r>    2.6350    1.0000 </r>
       <r>    5.0494    1.0000 </r>
       <r>    5.0494    1.0000 </r>
       <r>    7.7698    0.0000 </r>
       <r>    8.9615    0.0000 </r>
       <r>    8.9615    0.0000 </r>
       <r>   11.4962    0.0000 </r>
      </set>
      <set comment="kpoint 4">
       <r>   -5.0868    1.0000 </r>
       <r>    0.8769    1.0000 </r>
       <r>    4.7193    1.0000 </r>
       <r>    4.7193    1.0000 </r>
       <r>    7.4062    0.0000 </r>
       <r>    9.1421    0.0000 </r>
       <r>    9.1421    0.0000 </r>
       <r>   13.1181    0.0000 </r>
      </set>
      <set comment="kpoint 5">
       <r>   -4.3570    1.0000 </r>
       <r>   -0.5714    1.0000 </r>
       <r>    4.5094    1.0000 </r>
       <r>    4.5094    1.0000 </r>
       <r>    7.1663    0.0000 </r>
       <r>    9.0376    0.0000 </r>
       <r>    9.0376    0.0000 </r>
       <r>   13.4225    0.0000 </r>
      </set>
      <set comment="kpoint 6">
       <r>   -3.9193    1.0000 </r>
       <r>   -1.2519    1.0000 </r>
       <r>    4.4385    1.0000 </r>
       <r>    4.4385    1.0000 </r>
       <r>    7.0840    0.0000 </r>
       <r>    8.9665    0.0000 </r>
       <r>    8.9665    0.0000 </r>
       <r>   13.3195    0.0000 </r>
      </set>
      <set comment="kpoint 7">
       <r>   -6.0265    1.0000 </r>
       <r>    4.6614    1.0000 </r>
       <r>    5.0555    1.0000 </r>
       <r>    5.0555    1.0000 </r>
       <r>    7.8022    0.0000 </r>
       <r>    8.9463    0.0000 </r>
       <r>    8.9463    0.0000 </r>
       <r>    9.6063    0.0000 </r>
      </set>
      <set comment="kpoint 8">
       <r>   -5.7294    1.0000 </r>
       <r>    3.1755    1.0000 </r>
       <r>    4.6289    1.0000 </r>
       <r>    4.7869    1.0000 </r>
       <r>    7.8564    0.0000 </r>
       <r>    8.9556    0.0000 </r>
       <r>    9.5901    0.0000 </r>
       <r>   10.5301    0.0000 </r>
      </set>
      <set comment="kpoint 9">
       <r>   -5.1961    1.0000 </r>
       <r>    1.4447    1.0000 </r>
       <r>    4.3147    1.0000 </r>
       <r>    4.3591    1.0000 </r>
       <r>    7.9646    0.0000 </r>
       <r>    8.9589    0.0000 </r>
       <r>    9.8769    0.0000 </r>
       <r>   10.9191    0.0000 </r>
      </set>
      <set comment="kpoint 10">
       <r>   -4.4876    1.0000 </r>
       <r>   -0.0995    1.0000 </r>
       <r>    3.9539    1.0000 </r>
       <r>    4.1682    1.0000 </r>
       <r>    7.8078    0.0000 </r>
       <r>    8.9469    0.0000 </r>
       <r>    9.7133    0.0000 </r>
       <r>   11.9639    0.0000 </r>
      </set>
      <set comment="kpoint 11">
       <r>   -3.8646    1.0000 </r>
       <r>   -1.1125    1.0000 </r>
       <r>    3.6694    1.0000 </r>
       <r>    4.1989    1.0000 </r>
       <r>    7.7144    0.0000 </r>
       <r>    8.9276    0.0000 </r>
       <r>    9.4564    0.0000 </r>
       <r>   13.3573    0.0000 </r>
      </set>
      <set comment="kpoint 12">
       <r>   -4.0266    1.0000 </r>
       <r>   -0.8703    1.0000 </r>
       <r>    3.5455    1.0000 </r>
       <r>    4.3937    1.0000 </r>
       <r>    7.7692    0.0000 </r>
       <r>    9.0618    0.0000 </r>
       <r>    9.3035    0.0000 </r>
       <r>   13.6089    0.0000 </r>
      </set>
      <set comment="kpoint 13">
       <r>   -4.7374    1.0000 </r>
       <r>    0.3849    1.0000 </r>
       <r>    3.6077    1.0000 </r>
       <r>    4.7216    1.0000 </r>
       <r>    7.9685    0.0000 </r>
       <r>    9.2264    0.0000 </r>
       <r>    9.3053    0.0000 </r>
       <r>   12.5481    0.0000 </r>
      </set>
      <set comment="kpoint 14">
       <r>   -5.3996    1.0000 </r>
       <r>    2.0044    1.0000 </r>
       <r>    3.8830    1.0000 </r>
       <r>    5.1201    1.0000 </r>
       <r>    8.2760    0.0000 </r>
       <r>    8.9736    0.0000 </r>
       <r>    9.3007    0.0000 </r>
       <r>   11.4879    0.0000 </r>
      </set>
      <set comment="kpoint 15">
       <r>   -5.8569    1.0000 </r>
       <r>    3.5901    1.0000 </r>
       <r>    4.4859    1.0000 </r>
       <r>    5.4416    1.0000 </r>
       <r>    8.5277    0.0000 </r>
       <r>    8.5288    0.0000 </r>
       <r>    8.7067    0.0000 </r>
       <r>   10.6671    0.0000 </r>
      </set>
      <set comment="kpoint 16">
       <r>   -5.5151    1.0000 </r>
       <r>    2.9824    1.0000 </r>
       <r>    4.1626    1.0000 </r>
       <r>    4.1626    1.0000 </r>
       <r>    7.0933    0.0000 </r>
       <r>    9.4703    0.0000 </r>
       <r>   10.4583    0.0000 </r>
       <r>   10.4583    0.0000 </r>
      </set>
      <set comment="kpoint 17">
       <r>   -5.0579    1.0000 </r>
       <r>    1.7600    1.0000 </r>
       <r>    3.6601    1.0000 </r>
       <r>    3.8202    1.0000 </r>
       <r>    7.1892    0.0000 </r>
       <r>    9.0619    0.0000 </r>
       <r>   10.7085    0.0000 </r>
       <r>   11.0466    0.0000 </r>
      </set>
      <set comment="kpoint 18">
       <r>   -4.3961    1.0000 </r>
       <r>    0.3534    1.0000 </r>
       <r>    3.0401    1.0000 </r>
       <r>    3.6624    1.0000 </r>
       <r>    7.4040    0.0000 </r>
       <r>    9.6868    0.0000 </r>
       <r>   10.4778    0.0000 </r>
       <r>   11.0131    0.0000 </r>
      </set>
      <set comment="kpoint 19">
       <r>   -3.6830    1.0000 </r>
       <r>   -0.8030    1.0000 </r>
       <r>    2.5387    1.0000 </r>
       <r>    3.7044    1.0000 </r>
       <r>    7.4677    0.0000 </r>
       <r>   10.2589    0.0000 </r>
       <r>   10.6958    0.0000 </r>
       <r>   11.2127    0.0000 </r>
      </set>
      <set comment="kpoint 20">
       <r>   -3.5352    1.0000 </r>
       <r>   -1.0050    1.0000 </r>
       <r>    2.2474    1.0000 </r>
       <r>    3.9371    1.0000 </r>
       <r>    7.6755    0.0000 </r>
       <r>   10.1640    0.0000 </r>
       <r>   10.3975    0.0000 </r>
       <r>   13.1119    0.0000 </r>
      </set>
      <set comment="kpoint 21">
       <r>   -4.1718    1.0000 </r>
       <r>   -0.0430    1.0000 </r>
       <r>    2.2328    1.0000 </r>
       <r>    4.3258    1.0000 </r>
       <r>    8.0576    0.0000 </r>
       <r>   10.1216    0.0000 </r>
       <r>   10.1789    0.0000 </r>
       <r>   12.2350    0.0000 </r>
      </set>
      <set comment="kpoint 22">
       <r>   -4.8746    1.0000 </r>
       <r>    1.1704    1.0000 </r>
       <r>    2.6835    1.0000 </r>
       <r>    4.7859    1.0000 </r>
       <r>    8.4681    0.0000 </r>
       <r>    9.5827    0.0000 </r>
       <r>    9.8867    0.0000 </r>
       <r>   11.2743    0.0000 </r>
      </set>
      <set comment="kpoint 23">
       <r>   -4.6767    1.0000 </r>
       <r>    1.2129    1.0000 </r>
       <r>    3.4346    1.0000 </r>
       <r>    3.4346    1.0000 </r>
       <r>    6.5064    0.0000 </r>
       <r>    8.0533    0.0000 </r>
       <r>   12.1885    0.0000 </r>
       <r>   12.1885    0.0000 </r>
      </set>
      <set comment="kpoint 24">
       <r>   -4.0755    1.0000 </r>
       <r>    0.2242    1.0000 </r>
       <r>    2.8233    1.0000 </r>
       <r>    3.2330    1.0000 </r>
       <r>    6.6939    0.0000 </r>
       <r>    7.8827    0.0000 </r>
       <r>   12.4726    0.0000 </r>
       <r>   12.6130    0.0000 </r>
      </set>
      <set comment="kpoint 25">
       <r>   -3.3416    1.0000 </r>
       <r>   -0.7615    1.0000 </r>
       <r>    2.0135    1.0000 </r>
       <r>    3.2389    1.0000 </r>
       <r>    6.8751    0.0000 </r>
       <r>    8.9933    0.0000 </r>
       <r>   12.2870    0.0000 </r>
       <r>   12.3749    0.0000 </r>
      </set>
      <set comment="kpoint 26">
       <r>   -2.9355    1.0000 </r>
       <r>   -1.2234    1.0000 </r>
       <r>    1.4728    1.0000 </r>
       <r>    3.4497    1.0000 </r>
       <r>    7.1032    0.0000 </r>
       <r>   10.7781    0.0000 </r>
       <r>   11.9794    0.0000 </r>
       <r>   12.1268    0.0000 </r>
      </set>
      <set comment="kpoint 27">
       <r>   -3.4611    1.0000 </r>
       <r>   -0.6458    1.0000 </r>
       <r>    1.4484    1.0000 </r>
       <r>    3.8377    1.0000 </r>
       <r>    7.5355    0.0000 </r>
       <r>   11.3112    0.0000 </r>
       <r>   11.6223    0.0000 </r>
       <r>   12.3445    0.0000 </r>
      </set>
      <set comment="kpoint 28">
       <r>   -3.5350    1.0000 </r>
       <r>   -0.5202    1.0000 </r>
       <r>    2.9776    1.0000 </r>
       <r>    2.9776    1.0000 </r>
       <r>    6.2348    0.0000 </r>
       <r>    6.9664    0.0000 </r>
       <r>   14.0179    0.0000 </r>
       <r>   14.0179    0.0000 </r>
      </set>
      <set comment="kpoint 29">
       <r>   -2.8203    1.0000 </r>
       <r>   -1.3464    1.0000 </r>
       <r>    2.4086    1.0000 </r>
       <r>    2.9296    1.0000 </r>
       <r>    6.4706    0.0000 </r>
       <r>    7.2159    0.0000 </r>
       <r>   14.2672    0.0000 </r>
       <r>   14.3442    0.0000 </r>
      </set>
      <set comment="kpoint 30">
       <r>   -2.3596    1.0000 </r>
       <r>   -1.7563    1.0000 </r>
       <r>    1.6476    1.0000 </r>
       <r>    3.0935    1.0000 </r>
       <r>    6.6807    0.0000 </r>
       <r>    8.7659    0.0000 </r>
       <r>   13.6142    0.0000 </r>
       <r>   14.1895    0.0000 </r>
      </set>
      <set comment="kpoint 31">
       <r>   -2.1295    1.0000 </r>
       <r>   -2.1295    1.0000 </r>
       <r>    2.8227    1.0000 </r>
       <r>    2.8227    1.0000 </r>
       <r>    6.3685    0.0000 </r>
       <r>    6.3685    0.0000 </r>
       <r>   15.5542    0.0000 </r>
       <r>   15.5542    0.0000 </r>
      </set>
      <set comment="kpoint 32">
       <r>   -5.3530    1.0000 </r>
       <r>    2.2554    1.0000 </r>
       <r>    3.5840    1.0000 </r>
       <r>    4.6616    1.0000 </r>
       <r>    7.9620    0.0000 </r>
       <r>    9.2664    0.0000 </r>
       <r>   10.2153    0.0000 </r>
       <r>   10.2361    0.0000 </r>
      </set>
      <set comment="kpoint 33">
       <r>   -4.7535    1.0000 </r>
       <r>    0.8729    1.0000 </r>
       <r>    3.0003    1.0000 </r>
       <r>    4.2959    1.0000 </r>
       <r>    8.3021    0.0000 </r>
       <r>    9.1841    0.0000 </r>
       <r>   10.3089    0.0000 </r>
       <r>   10.7015    0.0000 </r>
      </set>
      <set comment="kpoint 34">
       <r>   -4.0235    1.0000 </r>
       <r>   -0.4601    1.0000 </r>
       <r>    2.7665    1.0000 </r>
       <r>    3.9551    1.0000 </r>
       <r>    8.3405    0.0000 </r>
       <r>    8.8948    0.0000 </r>
       <r>   10.6285    0.0000 </r>
       <r>   11.6298    0.0000 </r>
      </set>
      <set comment="kpoint 35">
       <r>   -3.5780    1.0000 </r>
       <r>   -1.1197    1.0000 </r>
       <r>    2.7052    1.0000 </r>
       <r>    3.8212    1.0000 </r>
       <r>    8.3531    0.0000 </r>
       <r>    8.7311    0.0000 </r>
       <r>   10.5916    0.0000 </r>
       <r>   13.3485    0.0000 </r>
      </set>
      <set comment="kpoint 36">
       <r>   -4.5303    1.0000 </r>
       <r>    0.8669    1.0000 </r>
       <r>    2.8711    1.0000 </r>
       <r>    3.5760    1.0000 </r>
       <r>    7.4037    0.0000 </r>
       <r>    8.6835    0.0000 </r>
       <r>   10.7578    0.0000 </r>
       <r>   12.0813    0.0000 </r>
      </set>
      <set comment="kpoint 37">
       <r>   -3.8250    1.0000 </r>
       <r>   -0.2134    1.0000 </r>
       <r>    2.2625    1.0000 </r>
       <r>    3.2567    1.0000 </r>
       <r>    7.7842    0.0000 </r>
       <r>    9.3699    0.0000 </r>
       <r>   10.3837    0.0000 </r>
       <r>   12.4728    0.0000 </r>
      </set>
      <set comment="kpoint 38">
       <r>   -3.1921    1.0000 </r>
       <r>   -1.0535    1.0000 </r>
       <r>    1.8603    1.0000 </r>
       <r>    3.2025    1.0000 </r>
       <r>    7.9640    0.0000 </r>
       <r>    9.9566    0.0000 </r>
       <r>   11.0798    0.0000 </r>
       <r>   12.4008    0.0000 </r>
      </set>
      <set comment="kpoint 39">
       <r>   -3.3884    1.0000 </r>
       <r>   -0.8010    1.0000 </r>
       <r>    1.7156    1.0000 </r>
       <r>    3.4363    1.0000 </r>
       <r>    8.2976    0.0000 </r>
       <r>    9.7021    0.0000 </r>
       <r>   11.5090    0.0000 </r>
       <r>   12.2860    0.0000 </r>
      </set>
      <set comment="kpoint 40">
       <r>   -4.1067    1.0000 </r>
       <r>    0.1280    1.0000 </r>
       <r>    2.0137    1.0000 </r>
       <r>    3.8654    1.0000 </r>
       <r>    8.7765    0.0000 </r>
       <r>    9.2550    0.0000 </r>
       <r>   10.3020    0.0000 </r>
       <r>   11.8098    0.0000 </r>
      </set>
      <set comment="kpoint 41">
       <r>   -3.4200    1.0000 </r>
       <r>   -0.6055    1.0000 </r>
       <r>    2.4685    1.0000 </r>
       <r>    2.7896    1.0000 </r>
       <r>    7.1202    0.0000 </r>
       <r>    7.7134    0.0000 </r>
       <r>   12.2907    0.0000 </r>
       <r>   14.0041    0.0000 </r>
      </set>
      <set comment="kpoint 42">
       <r>   -2.6987    1.0000 </r>
       <r>   -1.3663    1.0000 </r>
       <r>    1.7866    1.0000 </r>
       <r>    2.7005    1.0000 </r>
       <r>    7.4704    0.0000 </r>
       <r>    8.8951    0.0000 </r>
       <r>   11.8965    0.0000 </r>
       <r>   13.6524    0.0000 </r>
      </set>
      <set comment="kpoint 43">
       <r>   -2.7079    1.0000 </r>
       <r>   -1.3368    1.0000 </r>
       <r>    1.3814    1.0000 </r>
       <r>    2.9640    1.0000 </r>
       <r>    7.7918    0.0000 </r>
       <r>   10.7126    0.0000 </r>
       <r>   11.4946    0.0000 </r>
       <r>   11.8331    0.0000 </r>
      </set>
      <set comment="kpoint 44">
       <r>   -2.0792    1.0000 </r>
       <r>   -2.0792    1.0000 </r>
       <r>    2.4276    1.0000 </r>
       <r>    2.4276    1.0000 </r>
       <r>    7.2032    0.0000 </r>
       <r>    7.2032    0.0000 </r>
       <r>   14.0042    0.0000 </r>
       <r>   14.0042    0.0000 </r>
      </set>
      <set comment="kpoint 45">
       <r>   -3.1085    1.0000 </r>
       <r>   -0.8975    1.0000 </r>
       <r>    1.7278    1.0000 </r>
       <r>    2.6949    1.0000 </r>
       <r>    8.9996    0.0000 </r>
       <r>    9.3968    0.0000 </r>
       <r>    9.9888    0.0000 </r>
       <r>   13.3205    0.0000 </r>
      </set>
      <set comment="kpoint 46">
       <r>   -2.6100    1.0000 </r>
       <r>   -1.3968    1.0000 </r>
       <r>    1.5745    1.0000 </r>
       <r>    2.4499    1.0000 </r>
       <r>    9.2930    0.0000 </r>
       <r>    9.5695    0.0000 </r>
       <r>   10.9793    0.0000 </r>
       <r>   11.3855    0.0000 </r>
      </set>
      <set comment="kpoint 47">
       <r>   -1.9909    1.0000 </r>
       <r>   -1.9909    1.0000 </r>
       <r>    1.9306    1.0000 </r>
       <r>    1.9306    1.0000 </r>
       <r>    9.0426    0.0000 </r>
       <r>    9.0426    0.0000 </r>
       <r>   11.4792    0.0000 </r>
       <r>   11.4792    0.0000 </r>
      </set>
     </set>
    </set>
   </array>
  </eigenvalues>
  <separator name="orbital magnetization" >
   <v name="MAGDIPOLOUT">      0.00000000      0.00000000      0.00000000</v>
  </separator>
  <dos>
   <i name="efermi">      5.79588094 </i>
   <total>
    <array>
     <dimension dim="1">gridpoints</dimension>
     <dimension dim="2">spin</dimension>
     <field>energy</field>
     <field>total</field>
     <field>integrated</field>
     <set>
      <set comment="spin 1">
       <r>    -7.2858     0.0000     0.0000 </r>
       <r>    -7.2061     0.0000     0.0000 </r>
       <r>    -7.1263     0.0000     0.0000 </r>
       <r>    -7.0466     0.0000     0.0000 </r>
       <r>    -6.9668     0.0000     0.0000 </r>
       <r>    -6.8870     0.0000     0.0000 </r>
       <r>    -6.8073     0.0000     0.0000 </r>
       <r>    -6.7275     0.0000     0.0000 </r>
       <r>    -6.6478     0.0000     0.0000 </r>
       <r>    -6.5680     0.0000     0.0000 </r>
       <r>    -6.4882     0.0000     0.0000 </r>
       <r>    -6.4085     0.0000     0.0000 </r>
       <r>    -6.3287     0.0000     0.0000 </r>
       <r>    -6.2490     0.0002     0.0000 </r>
       <r>    -6.1692     0.0227     0.0018 </r>
       <r>    -6.0894     0.0375     0.0048 </r>
       <r>    -6.0097     0.2830     0.0274 </r>
       <r>    -5.9299     0.0328     0.0300 </r>
       <r>    -5.8502     0.1881     0.0450 </r>
       <r>    -5.7704     0.1288     0.0553 </r>
       <r>    -5.6906     0.6640     0.1082 </r>
       <r>    -5.6109     0.1224     0.1180 </r>
       <r>    -5.5311     0.0339     0.1207 </r>
       <r>    -5.4514     0.1208     0.1303 </r>
       <r>    -5.3716     0.6559     0.1826 </r>
       <r>    -5.2919     0.5423     0.2259 </r>
       <r>    -5.2121     0.1370     0.2368 </r>
       <r>    -5.1323     0.4685     0.2742 </r>
       <r>    -5.0526     0.5482     0.3179 </r>
       <r>    -4.9728     0.2517     0.3380 </r>
       <r>    -4.8931     0.0577     0.3426 </r>
       <r>    -4.8133     0.2457     0.3622 </r>
       <r>    -4.7335     1.3365     0.4688 </r>
       <r>    -4.6538     0.5959     0.5163 </r>
       <r>    -4.5740     0.0329     0.5189 </r>
       <r>    -4.4943     0.7895     0.5819 </r>
       <r>    -4.4145     0.5188     0.6233 </r>
       <r>    -4.3347     0.6552     0.6756 </r>
       <r>    -4.2550     0.0307     0.6780 </r>
       <r>    -4.1752     0.2623     0.6989 </r>
       <r>    -4.0955     0.8668     0.7681 </r>
       <r>    -4.0157     1.8677     0.9170 </r>
       <r>    -3.9360     0.6361     0.9677 </r>
       <r>    -3.8562     0.5572     1.0122 </r>
       <r>    -3.7764     1.3134     1.1169 </r>
       <r>    -3.6967     0.1693     1.1304 </r>
       <r>    -3.6169     0.4653     1.1676 </r>
       <r>    -3.5372     0.9139     1.2405 </r>
       <r>    -3.4574     0.6162     1.2896 </r>
       <r>    -3.3776     1.5564     1.4137 </r>
       <r>    -3.2979     0.9442     1.4891 </r>
       <r>    -3.2181     0.1446     1.5006 </r>
       <r>    -3.1384     1.1121     1.5893 </r>
       <r>    -3.0586     0.5550     1.6336 </r>
       <r>    -2.9788     0.0180     1.6350 </r>
       <r>    -2.8991     0.5637     1.6799 </r>
       <r>    -2.8193     0.3379     1.7069 </r>
       <r>    -2.7396     0.3626     1.7358 </r>
       <r>    -2.6598     1.6908     1.8707 </r>
       <r>    -2.5801     0.5961     1.9182 </r>
       <r>    -2.5003     0.0475     1.9220 </r>
       <r>    -2.4205     0.0006     1.9220 </r>
       <r>    -2.3408     0.2437     1.9415 </r>
       <r>    -2.2610     0.0566     1.9460 </r>
       <r>    -2.1813     0.0011     1.9461 </r>
       <r>    -2.1015     0.2232     1.9639 </r>
       <r>    -2.0217     0.5698     2.0093 </r>
       <r>    -1.9420     0.5536     2.0535 </r>
       <r>    -1.8622     0.0064     2.0540 </r>
       <r>    -1.7825     0.0328     2.0566 </r>
       <r>    -1.7027     0.2664     2.0779 </r>
       <r>    -1.6229     0.0017     2.0780 </r>
       <r>    -1.5432     0.0000     2.0780 </r>
       <r>    -1.4634     0.0005     2.0780 </r>
       <r>    -1.3837     0.7203     2.1355 </r>
       <r>    -1.3039     2.2370     2.3139 </r>
       <r>    -1.2242     0.4349     2.3486 </r>
       <r>    -1.1444     0.4324     2.3831 </r>
       <r>    -1.0646     1.4417     2.4981 </r>
       <r>    -0.9849     1.3494     2.6057 </r>
       <r>    -0.9051     0.3508     2.6337 </r>
       <r>    -0.8254     1.1861     2.7283 </r>
       <r>    -0.7456     2.0340     2.8905 </r>
       <r>    -0.6658     0.1972     2.9062 </r>
       <r>    -0.5861     0.7897     2.9692 </r>
       <r>    -0.5063     0.3899     3.0003 </r>
       <r>    -0.4266     1.1561     3.0925 </r>
       <r>    -0.3468     0.0686     3.0980 </r>
       <r>    -0.2670     0.0069     3.0986 </r>
       <r>    -0.1873     1.0659     3.1836 </r>
       <r>    -0.1075     0.3436     3.2110 </r>
       <r>    -0.0278     0.8488     3.2787 </r>
       <r>     0.0520     0.1422     3.2900 </r>
       <r>     0.1318     0.3434     3.3174 </r>
       <r>     0.2115     0.4233     3.3512 </r>
       <r>     0.2913     0.4373     3.3860 </r>
       <r>     0.3710     0.6336     3.4366 </r>
       <r>     0.4508     0.5689     3.4820 </r>
       <r>     0.5305     0.0006     3.4820 </r>
       <r>     0.6103     0.0000     3.4820 </r>
       <r>     0.6901     0.0000     3.4820 </r>
       <r>     0.7698     0.0000     3.4820 </r>
       <r>     0.8496     0.3076     3.5065 </r>
       <r>     0.9293     1.6914     3.6414 </r>
       <r>     1.0091     0.0070     3.6420 </r>
       <r>     1.0889     0.0000     3.6420 </r>
       <r>     1.1686     0.1432     3.6534 </r>
       <r>     1.2484     0.3010     3.6774 </r>
       <r>     1.3281     0.0107     3.6783 </r>
       <r>     1.4079     0.5684     3.7236 </r>
       <r>     1.4877     1.3661     3.8326 </r>
       <r>     1.5674     0.3900     3.8637 </r>
       <r>     1.6472     0.5287     3.9059 </r>
       <r>     1.7269     1.3282     4.0118 </r>
       <r>     1.8067     2.2263     4.1894 </r>
       <r>     1.8864     1.2928     4.2925 </r>
       <r>     1.9662     0.7302     4.3507 </r>
       <r>     2.0460     1.7051     4.4867 </r>
       <r>     2.1257     0.0914     4.4940 </r>
       <r>     2.2055     0.0840     4.5007 </r>
       <r>     2.2852     2.6800     4.7145 </r>
       <r>     2.3650     0.2580     4.7350 </r>
       <r>     2.4448     1.3605     4.8435 </r>
       <r>     2.5245     1.1831     4.9379 </r>
       <r>     2.6043     0.4668     4.9751 </r>
       <r>     2.6840     0.8802     5.0453 </r>
       <r>     2.7638     2.6209     5.2544 </r>
       <r>     2.8436     1.8793     5.4043 </r>
       <r>     2.9233     0.9186     5.4775 </r>
       <r>     3.0031     2.0193     5.6386 </r>
       <r>     3.0828     1.2756     5.7403 </r>
       <r>     3.1626     0.4217     5.7740 </r>
       <r>     3.2423     2.6124     5.9823 </r>
       <r>     3.3221     1.3990     6.0939 </r>
       <r>     3.4019     0.0901     6.1011 </r>
       <r>     3.4816     1.9549     6.2570 </r>
       <r>     3.5614     0.7973     6.3206 </r>
       <r>     3.6411     2.1966     6.4958 </r>
       <r>     3.7209     2.0454     6.6589 </r>
       <r>     3.8007     0.3592     6.6876 </r>
       <r>     3.8804     2.0067     6.8476 </r>
       <r>     3.9602     2.0865     7.0141 </r>
       <r>     4.0399     0.8016     7.0780 </r>
       <r>     4.1197     0.0133     7.0791 </r>
       <r>     4.1995     1.1422     7.1702 </r>
       <r>     4.2792     0.6455     7.2216 </r>
       <r>     4.3590     2.3926     7.4125 </r>
       <r>     4.4387     1.0257     7.4943 </r>
       <r>     4.5185     0.8425     7.5615 </r>
       <r>     4.5983     0.2025     7.5776 </r>
       <r>     4.6780     1.1599     7.6701 </r>
       <r>     4.7578     1.1897     7.7650 </r>
       <r>     4.8375     0.8572     7.8334 </r>
       <r>     4.9173     0.0074     7.8340 </r>
       <r>     4.9970     0.0036     7.8343 </r>
       <r>     5.0768     0.6242     7.8841 </r>
       <r>     5.1566     0.6504     7.9359 </r>
       <r>     5.2363     0.0258     7.9380 </r>
       <r>     5.3161     0.0000     7.9380 </r>
       <r>     5.3958     0.0443     7.9415 </r>
       <r>     5.4756     0.6387     7.9925 </r>
       <r>     5.5554     0.0192     7.9940 </r>
       <r>     5.6351     0.0603     7.9988 </r>
       <r>     5.7149     0.0148     8.0000 </r>
       <r>     5.7946     0.0000     8.0000 </r>
       <r>     5.8744     0.0000     8.0000 </r>
       <r>     5.9542     0.0000     8.0000 </r>
       <r>     6.0339     0.0000     8.0000 </r>
       <r>     6.1137     0.0000     8.0000 </r>
       <r>     6.1934     0.0039     8.0003 </r>
       <r>     6.2732     0.1413     8.0116 </r>
       <r>     6.3529     0.0401     8.0148 </r>
       <r>     6.4327     0.1378     8.0258 </r>
       <r>     6.5125     0.6572     8.0782 </r>
       <r>     6.5922     0.0729     8.0840 </r>
       <r>     6.6720     0.1936     8.0994 </r>
       <r>     6.7517     0.7071     8.1558 </r>
       <r>     6.8315     0.0140     8.1570 </r>
       <r>     6.9113     0.5639     8.2019 </r>
       <r>     6.9910     0.1579     8.2145 </r>
       <r>     7.0708     0.1111     8.2234 </r>
       <r>     7.1505     1.3786     8.3333 </r>
       <r>     7.2303     1.7628     8.4739 </r>
       <r>     7.3101     0.2264     8.4920 </r>
       <r>     7.3898     0.3505     8.5200 </r>
       <r>     7.4696     1.9575     8.6761 </r>
       <r>     7.5493     1.1248     8.7658 </r>
       <r>     7.6291     0.0864     8.7727 </r>
       <r>     7.7088     1.0486     8.8563 </r>
       <r>     7.7886     2.5206     9.0574 </r>
       <r>     7.8684     2.1659     9.2301 </r>
       <r>     7.9481     1.2850     9.3326 </r>
       <r>     8.0279     2.4110     9.5249 </r>
       <r>     8.1076     0.6973     9.5805 </r>
       <r>     8.1874     0.2470     9.6002 </r>
       <r>     8.2672     0.3773     9.6303 </r>
       <r>     8.3469     3.5971     9.9172 </r>
       <r>     8.4267     0.8939     9.9885 </r>
       <r>     8.5064     0.7459    10.0480 </r>
       <r>     8.5862     0.5246    10.0898 </r>
       <r>     8.6660     0.1333    10.1005 </r>
       <r>     8.7457     1.3194    10.2057 </r>
       <r>     8.8255     0.9757    10.2835 </r>
       <r>     8.9052     1.7810    10.4256 </r>
       <r>     8.9850     4.4847    10.7833 </r>
       <r>     9.0648     2.8026    11.0068 </r>
       <r>     9.1445     0.9232    11.0804 </r>
       <r>     9.2243     1.6489    11.2120 </r>
       <r>     9.3040     2.8300    11.4377 </r>
       <r>     9.3838     2.1403    11.6084 </r>
       <r>     9.4635     1.1832    11.7028 </r>
       <r>     9.5433     0.3998    11.7346 </r>
       <r>     9.6231     1.4922    11.8537 </r>
       <r>     9.7028     1.3876    11.9643 </r>
       <r>     9.7826     1.2989    12.0679 </r>
       <r>     9.8623     0.1862    12.0828 </r>
       <r>     9.9421     1.0209    12.1642 </r>
       <r>    10.0219     1.4648    12.2810 </r>
       <r>    10.1016     0.1426    12.2924 </r>
       <r>    10.1814     1.3367    12.3990 </r>
       <r>    10.2611     1.8434    12.5461 </r>
       <r>    10.3409     2.0599    12.7103 </r>
       <r>    10.4207     1.7576    12.8505 </r>
       <r>    10.5004     0.9766    12.9284 </r>
       <r>    10.5802     0.8321    12.9948 </r>
       <r>    10.6599     1.7148    13.1316 </r>
       <r>    10.7397     3.1964    13.3865 </r>
       <r>    10.8194     1.2058    13.4827 </r>
       <r>    10.8992     0.1216    13.4924 </r>
       <r>    10.9790     0.8256    13.5582 </r>
       <r>    11.0587     1.4896    13.6770 </r>
       <r>    11.1385     1.1875    13.7717 </r>
       <r>    11.2182     0.3676    13.8011 </r>
       <r>    11.2980     0.5791    13.8472 </r>
       <r>    11.3778     0.4751    13.8851 </r>
       <r>    11.4575     0.5654    13.9302 </r>
       <r>    11.5373     2.8945    14.1611 </r>
       <r>    11.6170     0.5866    14.2079 </r>
       <r>    11.6968     1.0536    14.2919 </r>
       <r>    11.7766     0.0386    14.2950 </r>
       <r>    11.8563     1.1106    14.3836 </r>
       <r>    11.9361     1.2911    14.4866 </r>
       <r>    12.0158     1.1420    14.5776 </r>
       <r>    12.0956     0.5237    14.6194 </r>
       <r>    12.1753     0.7848    14.6820 </r>
       <r>    12.2551     0.8795    14.7521 </r>
       <r>    12.3349     2.4409    14.9468 </r>
       <r>    12.4146     1.6973    15.0822 </r>
       <r>    12.4944     1.8552    15.2302 </r>
       <r>    12.5741     0.8295    15.2963 </r>
       <r>    12.6539     0.6315    15.3467 </r>
       <r>    12.7337     0.0162    15.3480 </r>
       <r>    12.8134     0.0000    15.3480 </r>
       <r>    12.8932     0.0000    15.3480 </r>
       <r>    12.9729     0.0000    15.3480 </r>
       <r>    13.0527     0.0018    15.3481 </r>
       <r>    13.1325     0.6505    15.4000 </r>
       <r>    13.2122     0.1501    15.4120 </r>
       <r>    13.2920     0.0663    15.4173 </r>
       <r>    13.3717     1.6043    15.5452 </r>
       <r>    13.4515     0.4185    15.5786 </r>
       <r>    13.5313     0.0173    15.5800 </r>
       <r>    13.6110     0.4879    15.6189 </r>
       <r>    13.6908     1.5758    15.7446 </r>
       <r>    13.7705     0.0426    15.7480 </r>
       <r>    13.8503     0.0000    15.7480 </r>
       <r>    13.9300     0.0003    15.7480 </r>
       <r>    14.0098     0.8340    15.8145 </r>
       <r>    14.0896     0.6701    15.8680 </r>
       <r>    14.1693     0.0515    15.8721 </r>
       <r>    14.2491     0.3669    15.9014 </r>
       <r>    14.3288     0.6245    15.9512 </r>
       <r>    14.4086     0.4611    15.9879 </r>
       <r>    14.4884     0.0007    15.9880 </r>
       <r>    14.5681     0.0000    15.9880 </r>
       <r>    14.6479     0.0000    15.9880 </r>
       <r>    14.7276     0.0000    15.9880 </r>
       <r>    14.8074     0.0000    15.9880 </r>
       <r>    14.8872     0.0000    15.9880 </r>
       <r>    14.9669     0.0000    15.9880 </r>
       <r>    15.0467     0.0000    15.9880 </r>
       <r>    15.1264     0.0000    15.9880 </r>
       <r>    15.2062     0.0000    15.9880 </r>
       <r>    15.2859     0.0000    15.9880 </r>
       <r>    15.3657     0.0000    15.9880 </r>
       <r>    15.4455     0.0000    15.9880 </r>
       <r>    15.5252     0.0129    15.9890 </r>
       <r>    15.6050     0.1363    15.9999 </r>
       <r>    15.6847     0.0013    16.0000 </r>
       <r>    15.7645     0.0000    16.0000 </r>
       <r>    15.8443     0.0000    16.0000 </r>
       <r>    15.9240     0.0000    16.0000 </r>
       <r>    16.0038     0.0000    16.0000 </r>
       <r>    16.0835     0.0000    16.0000 </r>
       <r>    16.1633     0.0000    16.0000 </r>
       <r>    16.2431     0.0000    16.0000 </r>
       <r>    16.3228     0.0000    16.0000 </r>
       <r>    16.4026     0.0000    16.0000 </r>
       <r>    16.4823     0.0000    16.0000 </r>
       <r>    16.5621     0.0000    16.0000 </r>
       <r>    16.6418     0.0000    16.0000 </r>
      </set>
     </set>
    </array>
   </total>
  </dos>
 </calculation>
 <structure name="finalpos" >
  <crystal>
   <varray name="basis" >
    <v>       0.00000000       2.73429199       2.73429199 </v>
    <v>       2.73429199       0.00000000       2.73429199 </v>
    <v>       2.73429199       2.73429199       0.00000000 </v>
   </varray>
   <i name="volume">     40.88506259 </i>
   <varray name="rec_basis" >
    <v>      -0.18286269       0.18286269       0.18286269 </v>
    <v>       0.18286269      -0.18286269       0.18286269 </v>
    <v>       0.18286269       0.18286269      -0.18286269 </v>
   </varray>
  </crystal>
  <varray name="positions" >
   <v>       0.00000000       0.00000000       0.00000000 </v>
   <v>       0.25000000       0.25000000       0.25000000 </v>
  </varray>
 </structure>
</modeling>
